   28   28  500    1
  0.1072462E+02  0.1041608E-08  0.6069832E-09  0.4749619E-09  0.1000000E-14
   300.000000000000     
  CAR 
 MD-OXC                                  
    160      1     96
