       N       E                     dE             d eps       ncg     rms          rms(c)
DAV:   1     0.181337672668E+04    0.18134E+04   -0.63779E+04   200   0.145E+03
DAV:   2     0.119770582109E+03   -0.16936E+04   -0.15673E+04   200   0.432E+02
DAV:   3    -0.196294941034E+03   -0.31607E+03   -0.30168E+03   240   0.207E+02
DAV:   4    -0.217275416414E+03   -0.20980E+02   -0.20409E+02   240   0.568E+01
DAV:   5    -0.218189663399E+03   -0.91425E+00   -0.91062E+00   288   0.114E+01    0.373E+01
DAV:   6    -0.212243141559E+03    0.59465E+01   -0.28327E+02   264   0.773E+01    0.537E+01
DAV:   7    -0.190651422537E+03    0.21592E+02   -0.93574E+01   264   0.168E+02    0.134E+01
DAV:   8    -0.190342485393E+03    0.30894E+00   -0.20729E+01   224   0.148E+01    0.101E+01
DAV:   9    -0.200392454185E+03   -0.10050E+02   -0.11904E+01   288   0.223E+01    0.546E+01
DAV:  10    -0.193173457093E+03    0.72190E+01   -0.20299E+01   280   0.142E+01    0.377E+01
DAV:  11    -0.189605221105E+03    0.35682E+01   -0.93990E+00   272   0.970E+00    0.112E+01
DAV:  12    -0.189177379556E+03    0.42784E+00   -0.54986E+00   264   0.599E+00    0.936E+00
DAV:  13    -0.189030061989E+03    0.14732E+00   -0.71066E-01   296   0.427E+00    0.306E+00
DAV:  14    -0.189040684419E+03   -0.10622E-01   -0.10042E-01   272   0.196E+00    0.245E+00
DAV:  15    -0.189031023641E+03    0.96608E-02   -0.44259E-02   272   0.138E+00    0.164E+00
DAV:  16    -0.189027566825E+03    0.34568E-02   -0.27499E-02   280   0.107E+00    0.952E-01
DAV:  17    -0.189031919708E+03   -0.43529E-02   -0.11564E-02   280   0.749E-01    0.557E-01
DAV:  18    -0.189033792781E+03   -0.18731E-02   -0.41145E-03   280   0.375E-01    0.331E-01
DAV:  19    -0.189034329591E+03   -0.53681E-03   -0.85416E-04   224   0.186E-01    0.205E-01
DAV:  20    -0.189034249876E+03    0.79715E-04   -0.18208E-04   144   0.100E-01
      1 T=     0. E= -.18903394E+03 F= -.18903425E+03 E0= -.18903094E+03  EK= 0.30805E-03 SP= 0.00E+00 SK= 0.00E+00
       N       E                     dE             d eps       ncg     rms          rms(c)
DAV:   1    -0.189039058323E+03   -0.47287E-02   -0.79445E-03   216   0.335E-01    0.127E-01DDAV:   2    -0.189040395722E+03   -0.13374E-02   -0.90776E-03   280   0.786E-01    0.406E-01DDAV:   3    -0.189039445601E+03    0.95012E-03   -0.36391E-03   192   0.615E-01    0.366E-01DDAV:   4    -0.189038841834E+03    0.60377E-03   -0.93531E-04   168   0.318E-01    0.686E-02DDAV:   5    -0.189038856474E+03   -0.14640E-04   -0.10744E-04   128   0.801E-02
      2 T=     1. E= -.18903391E+03 F= -.18903886E+03 E0= -.18903606E+03  EK= 0.49662E-02 SP      2 T=     1. E= -.18903391E+03 F= -.18903886E+03 E0= -.18903606E+03  EK= 0.49662E-02 SP      2 T=     1. E= -.18903391E+03 F= -.18903886E+03 E0= -.18903606E+03  EK= 0.49662E-02 SP      2 T=     1. E= -.18903391E+03 F= -.18903886E+03 E0= -.18903606E+03  EK= 0.49662E-02 SP= -.13E-01 SK= 0.13E-01
8903391E+03 F= -.18903886E+03 E0= -.18903606E+03  EK= 0.49662E-02 SP      2 T=     1. E= -.18903391E+03 F= -.18903886E+03 E0= -.18903606E+03  EK= 0.49662E-02 SP      2 T=     1. E= -.18903391E+03 F= -.18903886E+03 E0= -.18903606E+03  EK= 0.49662E-02 SP= -.13E-01 SK= 0.13E-01
8903391E+03 F= -.18903886E+03 E0= -.18903606E+03  EK= 0.49662E-02 SP      2 T=     1. E= -.18903391E+03 F= -.18903886E+03 E0= -.18903606E+03  EK= 0.49662E-02 SP      2 T=     1. E= -.18903391E+03 F= -.18903886E+03 E0= -.18903606E+03  EK= 0.49662E-02 SP      2 T=     1. E= -.18903391E+03 F= -.18903886E+03 E0= -.18903606E+03  EK= 0.49662E-02 SP      2 T=     1. E= -.18903391E+03 F= -.18903886E+03 E0= -.18903606E+03  EK= 0.49662E-02 SP= -.13E-01 SK= 0.13E-01
8903391E+03 F= -.18903886E+03 E0= -.18903606E+03  EK= 0.49662E-02 SP      2 T=     1. E= -.18903391E+03 F= -.18903886E+03 E0= -.18903606E+03  EK= 0.49662E-02 SP= -.13E-01 SK= 0.13E-01
8903391E+03 F= -.18903886E+03 E0= -.18903606E+03  EK= 0.49662E-02 SP      2 T=     1. E= -.18903391E+03 F= -.18903886E+03 E0= -.18903606E+03  EK= 0.49662E-02 SP= -.13E-01 SK= 0.13E-01
8903391E+03 F= -.18903886E+03 E0= -.18903606E+03  EK= 0.49662E-02 SP      2 T=     1. E= -.18903391E+03 F= -.18903886E+03 E0= -.18903606E+03  EK= 0.49662E-02 SP      2 T=     1. E= -.18903391E+03 F= -.18903886E+03 E0= -.18903606E+03  EK= 0.49662E-02 SP= -.13E-01 SK= 0.13E-01
8903391E+03 F= -.18903886E+03 E0= -.18903606E+03  EK= 0.49662E-02 SP      2 T=     1. E= -.18903391E+03 F= -.18903886E+03 E0= -.18903606E+03  EK= 0.49662E-02 SP= -.13E-01 SK= 0.13E-01
8903391E+03 F= -.18903886E+03 E0= -.18903606E+03  EK= 0.49662E-02 SP      2 T=     1. E= -.18903391E+03 F= -.18903886E+03 E0= -.18903606E+03  EK= 0.49662E-02 SP      2 T=     1. E= -.18903391E+03 F= -.18903886E+03 E0= -.18903606E+03  EK= 0.49662E-02 SP      2 T=     1. E= -.18903391E+03 F= -.18903886E+03 E0= -.18903606E+03  EK= 0.49662E-02 SP= -.13E-01 SK= 0.13E-01
8903391E+03 F= -.18903886E+03 E0= -.18903606E+03  EK= 0.49662E-02 SP      2 T=     1. E= -.18903391E+03 F= -.18903886E+03 E0= -.18903606E+03  EK= 0.49662E-02 SP      2 T=     1. E= -.18903391E+03 F= -.18903886E+03 E0= -.18903606E+03  EK= 0.49662E-02 SP      2 T=     1. E= -.18903391E+03 F= -.18903886E+03 E0= -.18903606E+03  EK= 0.49662E-02 SP= -.13E-01 SK= 0.13E-01
8903391E+03 F= -.18903886E+03 E0= -.18903606E+03  EK= 0.49662E-02 SP      2 T=     1. E= -.18903391E+03 F= -.18903886E+03 E0= -.18903606E+03  EK= 0.49662E-02 SP= -.13E-01 SK= 0.13E-01
8903391E+03 F= -.18903886E+03 E0= -.18903606E+03  EK= 0.49662E-02 SP= -.13E-01 SK= 0.13E-01
8903391E+03 F= -.18903886E+03 E0= -.18903606E+03  EK= 0.49662E-02 SP      2 T=     1. E= -.18903391E+03 F= -.18903886E+03 E0= -.18903606E+03  EK= 0.49662E-02 SP= -.13E-01 SK= 0.13E-01
8903391E+03 F= -.18903886E+03 E0= -.18903606E+03  EK= 0.49662E-02 SP      2 T=     1. E= -.18903391E+03 F= -.18903886E+03 E0= -.18903606E+03  EK= 0.49662E-02 SP      2 T=     1. E= -.18903391E+03 F= -.18903886E+03 E0= -.18903606E+03  EK= 0.49662E-02 SP      2 T=     1. E= -.18903391E+03 F= -.18903886E+03 E0= -.18903606E+03  EK= 0.49662E-02 SP= -.13E-01 SK= 0.13E-01
8903391E+03 F= -.18903886E+03 E0= -.18903606E+03  EK= 0.49662E-02 SP      2 T=  DAV:   2    -0.189137364054E+03   -0.81721E-01   -0.14079E-01   272   0.335E+00    0.493E+00DDAV:   3    -0.189062972599E+03    0.74391E-01   -0.24223E-01   264   0.296E+00    0.115E+00
DAV:   4    -0.189054952489E+03    0.80201E-02   -0.17963E-02   264   0.107E+00    0.366E-01DDAV:   5    -0.189054230655E+03    0.72183E-03   -0.31885E-03   224   0.501E-01    0.336E-01DDAV:   6    -0.189053527993E+03    0.70266E-03   -0.80401E-04   152   0.313E-01    0.124E-01DDAV:   7    -0.189053436886E+03    0.91107E-04   -0.18518E-04   136   0.122E-01
      3 T=     6. E= -.18903385E+03 F= -.18905344E+03 E0= -.18905058E+03  EK= 0.20014E-01 SP      3 T=     6. E= -.18903385E+03 F= -.18905344E+03 E0= -.18905058E+03  EK= 0.20014E-01 SP      3 T=     6. E= -.18903385E+03 F= -.18905344E+03 E0= -.18905058E+03  EK= 0.20014E-01 SP      3 T=     6. E= -.18903385E+03 F= -.18905344E+03 E0= -.18905058E+03  EK= 0.20014E-01 SP= -.51E-01 SK= 0.51E-01
8903385E+03 F= -.18905344E+03 E0= -.18905058E+03  EK= 0.20014E-01 SP      3 T=     6. E= -.18903385E+03 F= -.18905344E+03 E0= -.18905058E+03  EK= 0.20014E-01 SP      3 T=     6. E= -.18903385E+03 F= -.18905344E+03 E0= -.18905058E+03  EK= 0.20014E-01 SP      3 T=     6. E= -.18903385E+03 F= -.18905344E+03 E0= -.18905058E+03  EK= 0.20014E-01 SP      3 T=     6. E= -.18903385E+03 F= -.18905344E+03 E0= -.18905058E+03  EK= 0.20014E-01 SP      3 T=     6. E= -.18903385E+03 F= -.18905344E+03 E0= -.18905058E+03  EK= 0.20014E-01 SP= -.51E-01 SK= 0.51E-01
8903385E+03 F= -.18905344E+03 E0= -.18905058E+03  EK= 0.20014E-01 SP      3 T=     6. E= -.18903385E+03 F= -.18905344E+03 E0= -.18905058E+03  EK= 0.20014E-01 SP      3 T=     6. E= -.18903385E+03 F= -.18905344E+03 E0= -.18905058E+03  EK= 0.20014E-01 SP= -.51E-01 SK= 0.51E-01
8903385E+03 F= -.18905344E+03 E0= -.18905058E+03  EK= 0.20014E-01 SP      3 T=     6. E= -.18903385E+03 F= -.18905344E+03 E0= -.18905058E+03  EK= 0.20014E-01 SP= -.51E-01 SK= 0.51E-01
8903385E+03 F= -.18905344E+03 E0= -.18905058E+03  EK= 0.20014E-01 SP      3 T=     6. E= -.18903385E+03 F= -.18905344E+03 E0= -.18905058E+03  EK= 0.20014E-01 SP= -.51E-01 SK= 0.51E-01
8903385E+03 F= -.18905344E+03 E0= -.18905058E+03  EK= 0.20014E-01 SP= -.51E-01 SK= 0.51E-01
8903385E+03 F= -.18905344E+03 E0= -.18905058E+03  EK= 0.20014E-01 SP      3 T=     6. E= -.18903385E+03 F= -.18905344E+03 E0= -.18905058E+03  EK= 0.20014E-01 SP= -.51E-01 SK= 0.51E-01
8903385E+03 F= -.18905344E+03 E0= -.18905058E+03  EK= 0.20014E-01 SP      3 T=     6. E= -.18903385E+03 F= -.18905344E+03 E0= -.18905058E+03  EK= 0.20014E-01 SP      3 T=     6. E= -.18903385E+03 F= -.18905344E+03 E0= -.18905058E+03  EK= 0.20014E-01 SP= -.51E-01 SK= 0.51E-01
8903385E+03 F= -.18905344E+03 E0= -.18905058E+03  EK= 0.20014E-01 SP= -.51E-01 SK= 0.51E-01
8903385E+03 F= -.18905344E+03 E0= -.18905058E+03  EK= 0.20014E-01 SP      3 T=     6. E= -.18903385E+03 F= -.18905344E+03 E0= -.18905058E+03  EK= 0.20014E-01 SP= -.51E-01 SK= 0.51E-01
8903385E+03 F= -.18905344E+03 E0= -.18905058E+03  EK= 0.20014E-01 SP      3 T=   DAV:   7    -0.189053436886E+03    0.91107E-04   -0.18518E-04   136   0.122E-01
      3 T=     6. E= -.18903385E+03 F= -.18905344E+03 E0= -.18905058E+03  EK= 0.20014E-01 SP= -.51E-01 SK= 0.51E-01
8903385E+03 F= -.18905344E+03 E0= -.18905058E+03  EK= 0.20014E-01 SP      3 T=     6. E= -.18903385E+03 F= -.18905344E+03 E0= -.18905058E+03  EK= 0.20014E-01 SP      3 T=     6. E= -.18903385E+03 F= -.18905344E+03 E0= -.18905058E+03  EK= 0.20014E-01 SP= -.51E-01 SK= 0.51E-01
8903385E+03 F= -.18905344E+03 E0= -.18905058E+03  EK= 0.20014E-01 SP      3 T=     6. E= -.18903385E+03 F= -.18905344E+03 E0= -.18905058E+03  EK= 0.20014E-01 SP      3 T=     6. E= -.18903385E+03 F= -.18905344E+03 E0= -.18905058E+03  EK= 0.20014E-01 SP      3 T=     6. E= -.18903385E+03 F= -.18905344E+03 E0= -.18905058E+03  EK= 0.20014E-01 SP      3 T=     6. E= -.18903385E+03 F= -.18905344E+03 E0= -.18905058E+03  EK= 0.20014E-01 SP      3 T=     6. E= -.18903385E+03 F= -.18905344E+03 E0= -.18905058E+03  EK= 0.20014E-01 SP      3 T=     6. E= -.18903385E+03 F= -.18905344E+03 E0= -.18905058E+03  EK= 0.20014E-01 SP= -.51E-01 SK= 0.51E-01
8903385E+03 F= -.18905344E+03 E0= -.18905058E+03  EK= 0.20014E-01 SP= -.51E-01 SK= 0.51E-01
8903385E+03 F= -.18905344E+03 E0= -.18905058E+03  EK= 0.20014E-01 SP      3 T=  DAV:   3    -0.189095179410E+03    0.14536E+00   -0.62770E-01   256   0.299E+00    0.779E-01
DAV:   4    -0.189079050803E+03    0.16129E-01   -0.15632E-02   264   0.100E+00    0.363E-01
DAV:   5    -0.189078642172E+03    0.40863E-03   -0.39629E-03   232   0.565E-01    0.590E-01
DAV:   6    -0.189077145991E+03    0.14962E-02   -0.13518E-03   152   0.417E-01    0.235E-01
DAV:   7    -0.189076970752E+03    0.17524E-03   -0.21036E-04   152   0.126E-01    0.170E-01
DAV:   8    -0.189076819062E+03    0.15169E-03   -0.80637E-05   128   0.902E-02    0.127E-01
DAV:   9    -0.189076773696E+03    0.45366E-04   -0.41734E-05   120   0.543E-02
      4 T=    13. E= -.18903367E+03 F= -.18907677E+03 E0= -.18907394E+03  EK= 0.45449E-01 SP      4 T=    13. E= -.18903367E+03 F= -.18907677E+03 E0= -.18907394E+03  EK= 0.45449E-01 SP= -.12E+00 SK= 0.11E+00
8903367E+03 F= -.18907677E+03 E0= -.18907394E+03  EK= 0.45449E-01 SP      4 T=    13. E= -.18903367E+03 F= -.18907677E+03 E0= -.18907394E+03  EK= 0.45449E-01 SP      4 T=    13. E= -.18903367E+03 F= -.18907677E+03 E0= -.18907394E+03  EK= 0.45449E-01 SP      4 T=    13. E= -.18903367E+03 F= -.18907677E+03 E0= -.18907394E+03  EK= 0.45449E-01 SP= -.12E+00 SK= 0.11E+00
8903367E+03 F= -.18907677E+03 E0= -.18907394E+03  EK= 0.45449E-01 SP= -.12E+00 SK= 0.11E+00
8903367E+03 F= -.18907677E+03 E0= -.18907394E+03  EK= 0.45449E-01 SP      4 T=    13. E= -.18903367E+03 F= -.18907677E+03 E0= -.18907394E+03  EK= 0.45449E-01 SP      4 T=    13. E= -.18903367E+03 F= -.18907677E+03 E0= -.18907394E+03  EK= 0.45449E-01 SP      4 T=    13. E= -.18903367E+03 F= -.18907677E+03 E0= -.18907394E+03  EK= 0.45449E-01 SP      4 T=    13. E= -.18903367E+03 F= -.18907677E+03 E0= -.18907394E+03  EK= 0.45449E-01 SP      4 T=    13. E= -.18903367E+03 F= -.18907677E+03 E0= -.18907394E+03  EK= 0.45449E-01 SP= -.12E+00 SK= 0.11E+00
8903367E+03 F= -.18907677E+03 E0= -.18907394E+03  EK= 0.45449E-01 SP= -.12E+00 SK= 0.11E+00
8903367E+03 F= -.18907677E+03 E0= -.18907394E+03  EK= 0.45449E-01 SP      4 T=    13. E= -.18903367E+03 F= -.18907677E+03 E0= -.18907394E+03  EK= 0.45449E-01 SP      4 T=    13. E= -.18903367E+03 F= -.18907677E+03 E0= -.18907394E+03  EK= 0.45449E-01 SP      4 T=    13. E= -.18903367E+03 F= -.18907677E+03 E0= -.18907394E+03  EK= 0.45449E-01 SP      4 T=    13. E= -.18903367E+03 F= -.18907677E+03 E0= -.18907394E+03  EK= 0.45449E-01 SP= -.12E+00 SK= 0.11E+00
8903367E+03 F= -.18907677E+03 E0= -.18907394E+03  EK= 0.45449E-01 SP      4 T=    13. E= -.18903367E+03 F= -.18907677E+03 E0= -.18907394E+03  EK= 0.45449E-01 SP      4 T=    13. E= -.18903367E+03 F= -.18907677E+03 E0= -.18907394E+03  EK= 0.45449E-01 SP      4 T=    13. E= -.18903367E+03 F= -.18907677E+03 E0= -.18907394E+03  EK= 0.45449E-01 SP      4 T=    13. E= -.18903367E+03 F= -.18907677E+03 E0= -.18907394E+03  EK= 0.45449E-01 SP      4 T=    13. E= -.18903367E+03 F= -.18907677E+03 E0= -.18907394E+03  EK= 0.45449E-01 SP      4 T=    13. E= -.18903367E+03 F= -.18907677E+03 E0= -.18907394E+03  EK= 0.45449E-01 SP      4 T=    13. E= -.18903367E+03 F= -.18907677E+03 E0= -.18907394E+03  EK= 0.45449E-01 SP= -.12E+00 SK= 0.11E+00
8903367E+03 F= -.18907677E+03 E0= -.18907394E+03  EK= 0.45449E-01 SP      4 T=    13. E= -.18903367E+03 F= -.18907677E+03 E0= -.18907394E+03  EK= 0.45449E-01 SP= -.12E+00 SK= 0.11E+00
8903367E+03 F= -.18907677E+03 E0= -.18907394E+03  EK= 0.45449E-01 SP= -.12E+00 SK= 0.11E+00
8903367E+03 F= -.18907677E+03 E0= -.18907394E+03  EK= 0.45449E-01 SP      4 T=    13. E= -.18903367E+03 F= -.18907677E+03 E0= -.18907394E+03  EK= 0.45449E-01 SP= -.12E+00 SK= 0.11E+00
8903367E+03 F= -.18907677E+03 E0= -.18907394E+03  EK= 0.45449E-01 SP      4 T=    13. E= -.18903367E+03 F= -.18907677E+03 E0= -.18907394E+03  EK= 0.45449E-01 SP      4 T=    13. E= -.18903367E+03 F= -.18907677E+03 E0= -.18907394E+03  EK= 0.45449E-01 SP= -.12E+00 SK= 0.11E+00
8903367E+03 F= -.18907677E+03 E0= -.18907394E+03  EK= 0.45449E-01 SP= -.12E+00 SK= 0.11E+00
8903367E+03 F= -.18907677E+03 E0= -.18907394E+03  EK= 0.45449E-01 SP      4 T= DDAV:   4    -0.189108796789E+03    0.63857E-02   -0.16779E-02   272   0.107E+00    0.302E-01DDAV:   5    -0.189108492359E+03    0.30443E-03   -0.25059E-03   208   0.410E-01    0.345E-01DDAV:   6    -0.189108342251E+03    0.15011E-03   -0.13361E-03   160   0.469E-01    0.356E-01DDAV:   7    -0.189107692796E+03    0.64946E-03   -0.48355E-04   152   0.303E-01    0.878E-02DDAV:   8    -0.189107696751E+03   -0.39554E-05   -0.24667E-04   144   0.101E-01
      5 T=    23. E= -.18903347E+03 F= -.18910770E+03 E0= -.18910496E+03  EK= 0.81822E-01 SP      5 T=    23. E= -.18903347E+03 F= -.18910770E+03 E0= -.18910496E+03  EK= 0.81822E-01 SP      5 T=    23. E= -.18903347E+03 F= -.18910770E+03 E0= -.18910496E+03  EK= 0.81822E-01 SP      5 T=    23. E= -.18903347E+03 F= -.18910770E+03 E0= -.18910496E+03  EK= 0.81822E-01 SP= -.20E+00 SK= 0.20E+00
8903347E+03 F= -.18910770E+03 E0= -.18910496E+03  EK= 0.81822E-01 SP      5 T=    23. E= -.18903347E+03 F= -.18910770E+03 E0= -.18910496E+03  EK= 0.81822E-01 SP= -.20E+00 SK= 0.20E+00
8903347E+03 F= -.18910770E+03 E0= -.18910496E+03  EK= 0.81822E-01 SP      5 T=    23. E= -.18903347E+03 F= -.18910770E+03 E0= -.18910496E+03  EK= 0.81822E-01 SP      5 T=    23. E= -.18903347E+03 F= -.18910770E+03 E0= -.18910496E+03  EK= 0.81822E-01 SP      5 T=    23. E= -.18903347E+03 F= -.18910770E+03 E0= -.18910496E+03  EK= 0.81822E-01 SP      5 T=    23. E= -.18903347E+03 F= -.18910770E+03 E0= -.18910496E+03  EK= 0.81822E-01 SP      5 T=    23. E= -.18903347E+03 F= -.18910770E+03 E0= -.18910496E+03  EK= 0.81822E-01 SP      5 T=    23. E= -.18903347E+03 F= -.18910770E+03 E0= -.18910496E+03  EK= 0.81822E-01 SP      5 T=    23. E= -.18903347E+03 F= -.18910770E+03 E0= -.18910496E+03  EK= 0.81822E-01 SP      5 T=    23. E= -.18903347E+03 F= -.18910770E+03 E0= -.18910496E+03  EK= 0.81822E-01 SP      5 T=    23. E= -.18903347E+03 F= -.18910770E+03 E0= -.18910496E+03  EK= 0.81822E-01 SP= -.20E+00 SK= 0.20E+00
8903347E+03 F= -.18910770E+03 E0= -.18910496E+03  EK= 0.81822E-01 SP= -.20E+00 SK= 0.20E+00
8903347E+03 F= -.18910770E+03 E0= -.18910496E+03  EK= 0.81822E-01 SP      5 T=    23. E= -.18903347E+03 F= -.18910770E+03 E0= -.18910496E+03  EK= 0.81822E-01 SP      5 T=    23. E= -.18903347E+03 F= -.18910770E+03 E0= -.18910496E+03  EK= 0.81822E-01 SP= -.20E+00 SK= 0.20E+00
8903347E+03 F= -.18910770E+03 E0= -.18910496E+03  EK= 0.81822E-01 SP      5 T=    23. E= -.18903347E+03 F= -.18910770E+03 E0= -.18910496E+03  EK= 0.81822E-01 SP      5 T=    23. E= -.18903347E+03 F= -.18910770E+03 E0= -.18910496E+03  EK= 0.81822E-01 SP      5 T=    23. E= -.18903347E+03 F= -.18910770E+03 E0= -.18910496E+03  EK= 0.81822E-01 SP      5 T=    23. E= -.18903347E+03 F= -.18910770E+03 E0= -.18910496E+03  EK= 0.81822E-01 SP      5 T=    23. E= -.18903347E+03 F= -.18910770E+03 E0= -.18910496E+03  EK= 0.81822E-01 SP      5 T=    23. E= -.18903347E+03 F= -.18910770E+03 E0= -.18910496E+03  EK= 0.81822E-01 SP= -.20E+00 SK= 0.20E+00
8903347E+03 F= -.18910770E+03 E0= -.18910496E+03  EK= 0.81822E-01 SP      5 T=    23. E= -.18903347E+03 F= -.18910770E+03 E0= -.18910496E+03  EK= 0.81822E-01 SP      5 T=    23. E= -.18903347E+03 F= -.18910770E+03 E0= -.18910496E+03  EK= 0.81822E-01 SP= -.20E+00 SK= 0.20E+00
8903347E+03 F= -.18910770E+03 E0= -.18910496E+03  EK= 0.81822E-01 SP      5 T=    23. E= -.18903347E+03 F= -.18910770E+03 E0= -.18910496E+03  EK= 0.81822E-01 SP      5 T=    23. E= -.18903347E+03 F= -.18910770E+03 E0= -.18910496E+03  EK= 0.81822E-01 SP      5 T=    23. E= -.18903347E+03 F= -.18910770E+03 E0= -.18910496E+03  EK= 0.81822E-01 SP      5 T=    23. E= -.18903347E+03 F= -.18910770E+03 E0= -.18910496E+03  EK= 0.81822E-01 SP= -.20E+00 SK= 0.20E+00
8903347E+03 F= -.18910770E+03 E0= -.18910496E+03  EK= 0.81822E-01 SP      5 T=    23. E= -.18903347E+03 F= -.18910770E+03 E0= -.18910496E+03  EK= 0.81822E-01 SP= -.20E+00 SK= 0.20E+00
8903347E+03 F= -.18910770E+03 E0= -.18910496E+03  EK= 0.81822E-01 SP      5 T=    23. E= -.18903347E+03 F= -.18910770E+03 E0= -.18910496E+03  EK= 0.81822E-01 SP      5 T=  DAV:   4    -0.189145743605E+03    0.22516E-02   -0.12470E-02   264   0.864E-01    0.329E-01DDAV:   5    -0.189145368836E+03    0.37477E-03   -0.25461E-03   184   0.492E-01    0.425E-01DDAV:   6    -0.189144583935E+03    0.78490E-03   -0.10211E-03   160   0.405E-01    0.175E-01DDAV:   7    -0.189144491983E+03    0.91952E-04   -0.29433E-04   144   0.183E-01
      6 T=    37. E= -.18903319E+03 F= -.18914449E+03 E0= -.18914183E+03  EK= 0.13009E+00 SP      6 T=    37. E= -.18903319E+03 F= -.18914449E+03 E0= -.18914183E+03  EK= 0.13009E+00 SP= -.32E+00 SK= 0.30E+00
8903319E+03 F= -.18914449E+03 E0= -.18914183E+03  EK= 0.13009E+00 SP      6 T=    37. E= -.18903319E+03 F= -.18914449E+03 E0= -.18914183E+03  EK= 0.13009E+00 SP      6 T=    37. E= -.18903319E+03 F= -.18914449E+03 E0= -.18914183E+03  EK= 0.13009E+00 SP= -.32E+00 SK= 0.30E+00
8903319E+03 F= -.18914449E+03 E0= -.18914183E+03  EK= 0.13009E+00 SP      6 T=    37. E= -.18903319E+03 F= -.18914449E+03 E0= -.18914183E+03  EK= 0.13009E+00 SP= -.32E+00 SK= 0.30E+00
8903319E+03 F= -.18914449E+03 E0= -.18914183E+03  EK= 0.13009E+00 SP      6 T=    37. E= -.18903319E+03 F= -.18914449E+03 E0= -.18914183E+03  EK= 0.13009E+00 SP= -.32E+00 SK= 0.30E+00
8903319E+03 F= -.18914449E+03 E0= -.18914183E+03  EK= 0.13009E+00 SP      6 T=    37. E= -.18903319E+03 F= -.18914449E+03 E0= -.18914183E+03  EK= 0.13009E+00 SP= -.32E+00 SK= 0.30E+00
8903319E+03 F= -.18914449E+03 E0= -.18914183E+03  EK= 0.13009E+00 SP      6 T=    37. E= -.18903319E+03 F= -.18914449E+03 E0= -.18914183E+03  EK= 0.13009E+00 SP= -.32E+00 SK= 0.30E+00
8903319E+03 F= -.18914449E+03 E0= -.18914183E+03  EK= 0.13009E+00 SP      6 T=    37. E= -.18903319E+03 F= -.18914449E+03 E0= -.18914183E+03  EK= 0.13009E+00 SP= -.32E+00 SK= 0.30E+00
8903319E+03 F= -.18914449E+03 E0= -.18914183E+03  EK= 0.13009E+00 SP= -.32E+00 SK= 0.30E+00
8903319E+03 F= -.18914449E+03 E0= -.18914183E+03  EK= 0.13009E+00 SP      6 T=    37. E= -.18903319E+03 F= -.18914449E+03 E0= -.18914183E+03  EK= 0.13009E+00 SP      6 T=    37. E= -.18903319E+03 F= -.18914449E+03 E0= -.18914183E+03  EK= 0.13009E+00 SP      6 T=    37. E= -.18903319E+03 F= -.18914449E+03 E0= -.18914183E+03  EK= 0.13009E+00 SP= -.32E+00 SK= 0.30E+00
8903319E+03 F= -.18914449E+03 E0= -.18914183E+03  EK= 0.13009E+00 SP= -.32E+00 SK= 0.30E+00
8903319E+03 F= -.18914449E+03 E0= -.18914183E+03  EK= 0.13009E+00 SP      6 T=    37. E= -.18903319E+03 F= -.18914449E+03 E0= -.18914183E+03  EK= 0.13009E+00 SP= -.32E+00 SK= 0.30E+00
8903319E+03 F= -.18914449E+03 E0= -.18914183E+03  EK= 0.13009E+00 SP      6 T=    37. E= -.18903319E+03 F= -.18914449E+03 E0= -.18914183E+03  EK= 0.13009E+00 SP      6 T=    37. E= -.18903319E+03 F= -.18914449E+03 E0= -.18914183E+03  EK= 0.13009E+00 SP= -.32E+00 SK= 0.30E+00
8903319E+03 F= -.18914449E+03 E0= -.18914183E+03  EK= 0.13009E+00 SP      6 T=    37. E= -.18903319E+03 F= -.18914449E+03 E0= -.18914183E+03  EK= 0.13009E+00 SP      6 T=    37. E= -.18903319E+03 F= -.18914449E+03 E0= -.18914183E+03  EK= 0.13009E+00 SP      6 T=    37. E= -.18903319E+03 F= -.18914449E+03 E0= -.18914183E+03  EK= 0.13009E+00 SP= -.32E+00 SK= 0.30E+00
8903319E+03 F= -.18914449E+03 E0= -.18914183E+03  EK= 0.13009E+00 SP= -.32E+00 SK= 0.30E+00
8903319E+03 F= -.18914449E+03 E0= -.18914183E+03  EK= 0.13009E+00 SP      6 T=    37. E= -.18903319E+03 F= -.18914449E+03 E0= -.18914183E+03  EK= 0.13009E+00 SP= -.32E+00 SK= 0.30E+00
8903319E+03 F= -.18914449E+03 E0= -.18914183E+03  EK= 0.13009E+00 SP      6 T=    37. E= -.18903319E+03 F= -.18914449E+03 E0= -.18914183E+03  EK= 0.13009E+00 SP      6 T=    37. E= -.18903319E+03 F= -.18914449E+03 E0= -.18914183E+03  EK= 0.13009E+00 SP      6 T=    37. E= -.18903319E+03 F= -.18914449E+03 E0= -.18914183E+03  EK= 0.13009E+00 SP= -.32E+00 SK= 0.30E+00
8903319E+03 F= -.18914449E+03 E0= -.18914183E+03  EK= 0.13009E+00 SP= -.32E+00 SK= 0.30E+00
8903319E+03 F= -.18914449E+03 E0= -.18914183E+03  EK= 0.13009E+00 SP      6 T=  DAV:   4    -0.189185684615E+03    0.55303E-03   -0.25398E-03   248   0.442E-01    0.244E-01DDAV:   5    -0.189185672306E+03    0.12309E-04   -0.12772E-03   168   0.407E-01    0.352E-01DDAV:   6    -0.189185034564E+03    0.63774E-03   -0.48399E-04   144   0.282E-01    0.688E-02
DAV:   7    -0.189185034326E+03    0.23833E-06   -0.11548E-04   120   0.943E-02
      7 T=    55. E= -.18903281E+03 F= -.18918503E+03 E0= -.18918239E+03  EK= 0.19148E+00 SP= -.45E+00 SK= 0.41E+00
8903281E+03 F= -.18918503E+03 E0= -.18918239E+03  EK= 0.19148E+00 SP= -.45E+00 SK= 0.41E+00
8903281E+03 F= -.18918503E+03 E0= -.18918239E+03  EK= 0.19148E+00 SP      7 T=    55. E= -.18903281E+03 F= -.18918503E+03 E0= -.18918239E+03  EK= 0.19148E+00 SP= -.45E+00 SK= 0.41E+00
8903281E+03 F= -.18918503E+03 E0= -.18918239E+03  EK= 0.19148E+00 SP      7 T=    55. E= -.18903281E+03 F= -.18918503E+03 E0= -.18918239E+03  EK= 0.19148E+00 SP= -.45E+00 SK= 0.41E+00
8903281E+03 F= -.18918503E+03 E0= -.18918239E+03  EK= 0.19148E+00 SP= -.45E+00 SK= 0.41E+00
8903281E+03 F= -.18918503E+03 E0= -.18918239E+03  EK= 0.19148E+00 SP      7 T=    55. E= -.18903281E+03 F= -.18918503E+03 E0= -.18918239E+03  EK= 0.19148E+00 SP= -.45E+00 SK= 0.41E+00
8903281E+03 F= -.18918503E+03 E0= -.18918239E+03  EK= 0.19148E+00 SP      7 T=    55. E= -.18903281E+03 F= -.18918503E+03 E0= -.18918239E+03  EK= 0.19148E+00 SP= -.45E+00 SK= 0.41E+00
8903281E+03 F= -.18918503E+03 E0= -.18918239E+03  EK= 0.19148E+00 SP= -.45E+00 SK= 0.41E+00
8903281E+03 F= -.18918503E+03 E0= -.18918239E+03  EK= 0.19148E+00 SP      7 T=    55. E= -.18903281E+03 F= -.18918503E+03 E0= -.18918239E+03  EK= 0.19148E+00 SP      7 T=    55. E= -.18903281E+03 F= -.18918503E+03 E0= -.18918239E+03  EK= 0.19148E+00 SP= -.45E+00 SK= 0.41E+00
8903281E+03 F= -.18918503E+03 E0= -.18918239E+03  EK= 0.19148E+00 SP      7 T=    55. E= -.18903281E+03 F= -.18918503E+03 E0= -.18918239E+03  EK= 0.19148E+00 SP      7 T=    55. E= -.18903281E+03 F= -.18918503E+03 E0= -.18918239E+03  EK= 0.19148E+00 SP= -.45E+00 SK= 0.41E+00
8903281E+03 F= -.18918503E+03 E0= -.18918239E+03  EK= 0.19148E+00 SP      7 T=    55. E= -.18903281E+03 F= -.18918503E+03 E0= -.18918239E+03  EK= 0.19148E+00 SP      7 T=    55. E= -.18903281E+03 F= -.18918503E+03 E0= -.18918239E+03  EK= 0.19148E+00 SP= -.45E+00 SK= 0.41E+00
8903281E+03 F= -.18918503E+03 E0= -.18918239E+03  EK= 0.19148E+00 SP= -.45E+00 SK= 0.41E+00
8903281E+03 F= -.18918503E+03 E0= -.18918239E+03  EK= 0.19148E+00 SP      7 T=    55. E= -.18903281E+03 F= -.18918503E+03 E0= -.18918239E+03  EK= 0.19148E+00 SP      7 T=    55. E= -.18903281E+03 F= -.18918503E+03 E0= -.18918239E+03  EK= 0.19148E+00 SP      7 T=    55. E= -.18903281E+03 F= -.18918503E+03 E0= -.18918239E+03  EK= 0.19148E+00 SP      7 T=    55. E= -.18903281E+03 F= -.18918503E+03 E0= -.18918239E+03  EK= 0.19148E+00 SP      7 T=    55. E= -.18903281E+03 F= -.18918503E+03 E0= -.18918239E+03  EK= 0.19148E+00 SP      7 T=    55. E= -.18903281E+03 F= -.18918503E+03 E0= -.18918239E+03  EK= 0.19148E+00 SP      7 T=    55. E= -.18903281E+03 F= -.18918503E+03 E0= -.18918239E+03  EK= 0.19148E+00 SP      7 T=    55. E= -.18903281E+03 F= -.18918503E+03 E0= -.18918239E+03  EK= 0.19148E+00 SP      7 T=    55. E= -.18903281E+03 F= -.18918503E+03 E0= -.18918239E+03  EK= 0.19148E+00 SP= -.45E+00 SK= 0.41E+00
8903281E+03 F= -.18918503E+03 E0= -.18918239E+03  EK= 0.19148E+00 SP= -.45E+00 SK= 0.41E+00
8903281E+03 F= -.18918503E+03 E0= -.18918239E+03  EK= 0.19148E+00 SP      7 T=    55. E= -.18903281E+03 F= -.18918503E+03 E0= -.18918239E+03  EK= 0.19148E+00 SP= -.45E+00 SK= 0.41E+00
8903281E+03 F= -.18918503E+03 E0= -.18918239E+03  EK= 0.19148E+00 SP      7 T=    55. E= -.18903281E+03 F= -.18918503E+03 E0= -.18918239E+03  EK= 0.19148E+00 SP= -.45E+00 SK= 0.41E+00
8903281E+03 F= -.18918503E+03 E0= -.18918239E+03  EK= 0.19148E+00 SP= -.45E+00 SK= 0.41E+00
8903281E+03 F= -.18918503E+03 E0= -.18918239E+03  EK= 0.19148E+00 SP      7 T=    55. E= -.18903281E+03 F= -.18918503E+03 E0= -.18918239E+03  EK= 0.19148E+00 SP= -.45E+00 SK= 0.41E+00
8903281E+03 F= -.18918503E+03 E0= -.18918239E+03  EK= 0.19148E+00 SP      7 T=    55. E= -.18903281E+03 F= -.18918503E+03 E0= -.18918239E+03  EK= 0.19148E+00 SP      7 T=    55. E= -.18903281E+03 F= -.18918503E+03 E0= -.18918239E+03  EK= 0.19148E+00 SP      7 T=    55. E= -.18903281E+03 F= -.18918503E+03 E0= -.18918239E+03  EK= 0.19148E+00 SP= -.45E+00 SDAV:   4    -0.189227447273E+03    0.52955E-03   -0.28197E-03   216   0.375E-01       7 T=   DAV:   5    -0.189227646234E+03   -0.19896E-03   -0.11239E-03   160   0.399E-01    0.374E-01DDAV:   6    -0.189226952670E+03    0.69356E-03   -0.51294E-04   144   0.298E-01    0.683E-02DDAV:   7    -0.189226971918E+03   -0.19248E-04   -0.12420E-04   128   0.708E-02
      8 T=    77. E= -.18903234E+03 F= -.18922697E+03 E0= -.18922437E+03  EK= 0.26775E+00 SP      8 T=    77. E= -.18903234E+03 F= -.18922697E+03 E0= -.18922437E+03  EK= 0.26775E+00 SP= -.61E+00 SK= 0.53E+00
8903234E+03 F= -.18922697E+03 E0= -.18922437E+03  EK= 0.26775E+00 SP      8 T=    77. E= -.18903234E+03 F= -.18922697E+03 E0= -.18922437E+03  EK= 0.26775E+00 SP      8 T=    77. E= -.18903234E+03 F= -.18922697E+03 E0= -.18922437E+03  EK= 0.26775E+00 SP      8 T=    77. E= -.18903234E+03 F= -.18922697E+03 E0= -.18922437E+03  EK= 0.26775E+00 SP      8 T=    77. E= -.18903234E+03 F= -.18922697E+03 E0= -.18922437E+03  EK= 0.26775E+00 SP      8 T=  DAV:   7    -0.189226971918E+03   -0.19248E-04   -0.12420E-04   128   0.708E-02
      8 T=    77. E= -.18903234E+03 F= -.18922697E+03 E0= -.18922437E+03  EK= 0.26775E+00 SP= -.61E+00 SK= 0.53E+00
8903234E+03 F= -.18922697E+03 E0= -.18922437E+03  EK= 0.26775E+00 SP      8 T=    77. E= -.18903234E+03 F= -.18922697E+03 E0= -.18922437E+03  EK= 0.26775E+00 SP      8 T=    77. E= -.18903234E+03 F= -.18922697E+03 E0= -.18922437E+03  EK= 0.26775E+00 SP= -.61E+00 SK= 0.53E+00
8903234E+03 F= -.18922697E+03 E0= -.18922437E+03  EK= 0.26775E+00 SP      8 T=    77. E= -.18903234E+03 F= -.18922697E+03 E0= -.18922437E+03  EK= 0.26775E+00 SP      8 T=    77. E= -.18903234E+03 F= -.18922697E+03 E0= -.18922437E+03  EK= 0.26775E+00 SP= -.61E+00 SK= 0.53E+00
8903234E+03 F= -.18922697E+03 E0= -.18922437E+03  EK= 0.26775E+00 SP      8 T=    77. E= -.18903234E+03 F= -.18922697E+03 E0= -.18922437E+03  EK= 0.26775E+00 SP= -.61E+00 SK= 0.53E+00
8903234E+03 F= -.18922697E+03 E0= -.18922437E+03  EK= 0.26775E+00 SP      8 T=    77. E= -.18903234E+03 F= -.18922697E+03 E0= -.18922437E+03  EK= 0.26775E+00 SP= -.61E+00 SK= 0.53E+00
8903234E+03 F= -.18922697E+03 E0= -.18922437E+03  EK= 0.26775E+00 SP      8 T=    77. E= -.18903234E+03 F= -.18922697E+03 E0= -.18922437E+03  EK= 0.26775E+00 SP      8 T=    77. E= -.18903234E+03 F= -.18922697E+03 E0= -.18922437E+03  EK= 0.26775E+00 SP      8 T=    77. E= -.18903234E+03 F= -.18922697E+03 E0= -.18922437E+03  EK= 0.26775E+00 SP= -.61E+00 SK= 0.53E+00
8903234E+03 F= -.18922697E+03 E0= -.18922437E+03  EK= 0.26775E+00 SP      8 T=    77. E= -.18903234E+03 F= -.18922697E+03 E0= -.18922437E+03  EK= 0.26775E+00 SP      8 T=    77. E= -.18903234E+03 F= -.18922697E+03 E0= -.18922437E+03  EK= 0.26775E+00 SP= -.61E+00 SK= 0.53E+00
8903234E+03 F= -.18922697E+03 E0= -.18922437E+03  EK= 0.26775E+00 SP      8 T=    77. E= -.18903234E+03 F= -.18922697E+03 E0= -.18922437E+03  EK= 0.26775E+00 SP      8 T=    77. E= -.18903234E+03 F= -.18922697E+03 E0= -.18922437E+03  EK= 0.26775E+00 SP= -.61E+00 SK= 0.53E+00
8903234E+03 F= -.18922697E+03 E0= -.18922437E+03  EK= 0.26775E+00 SP= -.61E+00 SK= 0.53E+00
8903234E+03 F= -.18922697E+03 E0= -.18922437E+03  EK= 0.26775E+00 SP      8 T=    77. E= -.18903234E+03 F= -.18922697E+03 E0= -.18922437E+03  EK= 0.26775E+00 SP= -.61E+00 SK= 0.53E+00
8903234E+03 F= -.18922697E+03 E0= -.18922437E+03  EK= 0.26775E+00 SP= -.61E+00 SK= 0.53E+00
8903234E+03 F= -.18922697E+03 E0= -.18922437E+03  EK= 0.26775E+00 SP      8 T=    77. E= -.18903234E+03 F= -.18922697E+03 E0= -.18922437E+03  EK= 0.26775E+00 SP      8 T=    77. E= -.18903234E+03 F= -.18922697E+03 E0= -.18922437E+03  EK= 0.26775E+00 SP= -.61E+00 SK= 0.53E+00
8903234E+03 F= -.18922697E+03 E0= -.18922437E+03  EK= 0.26775E+00 SP      8 T=    77. E= -.18903234E+03 F= -.18922697E+03 E0= -.18922437E+03  EK= 0.26775E+00 S      9 T=   103. E= -.18903187E+03 F= -.18926780E+03 E0= -.18926527E+03  EK= 0.36120E+00 SP= -.78E+00 SK= 0.66E+00
8903187E+03 F= -.18926780E+03 E0= -.18926527E+03  EK= 0.36120E+00 SP      9 T=   103. E= -.18903187E+03 F= -.18926780E+03 E0= -.18926527E+03  EK= 0.36120E+00 SP= -.78E+00 SK= 0.66E+00
8903187E+03 F= -.18926780E+03 E0= -.18926527E+03  EK= 0.36120E+00 SP      9 T=   103. E= -.18903187E+03 F= -.18926780E+03 E0= -.18926527E+03  EK= 0.36120E+00 SP      9 T=   103. E= -.18903187E+03 F= -.18926780E+03 E0= -.18926527E+03  EK= 0.36120E+00 SP= -.78E+00 SK= 0.66E+00
8903187E+03 F= -.18926780E+03 E0= -.18926527E+03  EK= 0.36120E+00 SP      9 T=   103. E= -.18903187E+03 F= -.18926780E+03 E0= -.18926527E+03  EK= 0.36120E+00 SP      9 T=  DAV:   4    -0.189267796756E+03    0.23874E-05   -0.28682E-04   176   0.126E-01
      9 T=   103. E= -.18903187E+03 F= -.18926780E+03 E0= -.18926527E+03  EK= 0.36120E+00 SP=      9 T=   103. E= -.18903187E+03 F= -.18926780E+03 E0= -.18926527E+03  EK= 0.36120E+00 SP= -.78E+00 SK= 0.66E+00
8903187E+03 F= -.18926780E+03 E0= -.18926527E+03  EK= 0.36120E+00 SP      9 T=   103. E= -.18903187E+03 F= -.18926780E+03 E0= -.18926527E+03  EK= 0.36120E+00 SP= -.78E+00 SK= 0.66E+00
8903187E+03 F= -.18926780E+03 E0= -.18926527E+03  EK= 0.36120E+00 SP      9 T=   103. E= -.18903187E+03 F= -.18926780E+03 E0= -.18926527E+03  EK= 0.36120E+00 SP= -.78E+00 SK= 0.66E+00
8903187E+03 F= -.18926780E+03 E0= -.18926527E+03  EK= 0.36120E+00 SP      9 T=   103. E= -.18903187E+03 F= -.18926780E+03 E0= -.18926527E+03  EK= 0.36120E+00 SP      9 T=   103. E= -.18903187E+03 F= -.18926780E+03 E0= -.18926527E+03  EK= 0.36120E+00 SP= -.78E+00 SK= 0.66E+00
8903187E+03 F= -.18926780E+03 E0= -.18926527E+03  EK= 0.36120E+00 SP      9 T=   103. E= -.18903187E+03 F= -.18926780E+03 E0= -.18926527E+03  EK= 0.36120E+00 SP      9 T=   103. E= -.18903187E+03 F= -.18926780E+03 E0= -.18926527E+03  EK= 0.36120E+00 SP= -.78E+00 SK= 0.66E+00
8903187E+03 F= -.18926780E+03 E0= -.18926527E+03  EK= 0.36120E+00 SP      9 T=   103. E= -.18903187E+03 F= -.18926780E+03 E0= -.18926527E+03  EK= 0.36120E+00 SP= -.78E+00 SK= 0.66E+00
8903187E+03 F= -.18926780E+03 E0= -.18926527E+03  EK= 0.36120E+00 SP      9 T=   103. E= -.18903187E+03 F= -.18926780E+03 E0= -.18926527E+03  EK= 0.36120E+00 SP= -.78E+00 SK= 0.66E+00
8903187E+03 F= -.18926780E+03 E0= -.18926527E+03  EK= 0.36120E+00 SP      9 T=   103. E= -.18903187E+03 F= -.18926780E+03 E0= -.18926527E+03  EK= 0.36120E+00 SP      9 T=   103. E= -.18903187E+03 F= -.18926780E+03 E0= -.18926527E+03  EK= 0.36120E+00 SP= -.78E+00 SK= 0.66E+00
8903187E+03 F= -.18926780E+03 E0= -.18926527E+03  EK= 0.36120E+00 SP      9 T=   103. E= -.18903187E+03 F= -.18926780E+03 E0= -.18926527E+03  EK= 0.36120E+00 SP      9 T=   103. E= -.18903187E+03 F= -.18926780E+03 E0= -.18926527E+03  EK= 0.36120E+00 SP      9 T=   103. E= -.18903187E+03 F= -.18926780E+03 E0= -.18926527E+03  EK= 0.36120E+00 SP= -.78E+00 SK= 0.66E+00
8903187E+03 F= -.18926780E+03 E0= -.18926527E+03  EK= 0.36120E+00 SP      9 T=   103. E= -.18903187E+03 F= -.18926780E+03 E0= -.18926527E+03  EK= 0.36120E+00 SP= -.78E+00 SK= 0.66E+00
8903187E+03 F= -.18926780E+03 E0= -.18926527E+03  EK= 0.36120E+00 SP      9 T=   103. E= -.18903187E+03 F= -.18926780E+03 E0= -.18926527E+03  EK= 0.36120E+00 SP      9 T=   103. E= -.18903187E+03 F= -.18926780E+03 E0= -.18926527E+03  EK= 0.36120E+00 SP      9 T=   103. E= -.18903187E+03 F= -.18926780E+03 E0= -.18926527E+03  EK= 0.36120E+00 SP= -.78E+00 SK= 0.66E+00
8903187E+03 F= -.18926780E+03 E0= -.18926527E+03  EK= 0.36120E+00 SP      9 T=   103. E= -.18903187E+03 F= -.18926780E+03 E0= -.18926527E+03  EK= 0.36120E+00 SP      9 T=   103. E= -.18903187E+03 F= -.18926780E+03 E0= -.18926527E+03  EK= 0.36120E+00 SP= -.78E+00 SK= 0.66E+00
8903187E+03 F= -.18926780E+03 E0= -.18926527E+03  EK= 0.36120E+00 SP      9 T=   103. E= -.18903187E+03 F= -.18926780E+03 E0= -.18926527E+03  EK= 0.36120E+00 SP     10 T=   136. E= -.18903121E+03 F= -.18930470E+03 E0= -.18930222E+03  EK= 0.47482E+00 SP     10 T=   136. E= -.18903121E+03 F= -.18930470E+03 E0= -.18930222E+03  EK= 0.47482E+00 SP     10 T=   136. E= -.18903121E+03 F= -.18930470E+03 E0= -.18930222E+03  EK= 0.47482E+00 SP     10 T=   136. E= -.18903121E+03 F= -.18930470E+03 E0= -.18930222E+03  EK= 0.47482E+00 SP     10 T=   136. E= -.18903121E+03 F= -.18930470E+03 E0= -.18930222E+03  EK= 0.47482E+00 SP     10 T=   136. E= -.18903121E+03 F= -.18930470E+03 E0= -.18930222E+03  EK= 0.47482E+00 SP     10 T=   136. E= -.18903121E+03 F= -.18930470E+03 E0= -.18930222E+03  EK= 0.47482E+00 SP     10 T=   136. E= -.18903121E+03 F= -.18930470E+03 E0= -.18930222E+03  EK= 0.47482E+00 SP= -.97E+00 SK= 0.77E+00
8903121E+03 F= -.18930470E+03 E0= -.18930222E+03  EK= 0.47482E+00 SP= -.97E+00 SK= 0.77E+00
8903121E+03 F= -.18930470E+03 E0= -.18930222E+03  EK= 0.47482E+00 SP     10 T=   136. E= -.18903121E+03 F= -.18930470E+03 E0= -.18930222E+03  EK= 0.47482E+00 SP= -.97E+00 SK= 0.77E+00
8903121E+03 F= -.18930470E+03 E0= -.18930222E+03  EK= 0.47482E+00 SP     10 T=   136. E= -.18903121E+03 F= -.18930470E+03 E0= -.18930222E+03  EK= 0.47482E+00 SP     10 T=   136. E= -.18903121E+03 F= -.18930470E+03 E0= -.18930222E+03  EK= 0.47482E+00 SP     10 T=   136. E= -.18903121E+03 F= -.18930470E+03 E0= -.18930222E+03  EK= 0.47482E+00 SP= -.97E+00 SK= 0.77E+00
8903121E+03 F= -.18930470E+03 E0= -.18930222E+03  EK= 0.47482E+00 SP     10 T=   136. E= -.18903121E+03 F= -.18930470E+03 E0= -.18930222E+03  EK= 0.47482E+00 SP     10 T=   136. E= -.18903121E+03 F= -.18930470E+03 E0= -.18930222E+03  EK= 0.47482E+00 SP     10 T=   136. E= -.18903121E+03 F= -.18930470E+03 E0= -.18930222E+03  EK= 0.47482E+00 SP     10 T=   136. E= -.18903121E+03 F= -.18930470E+03 E0= -.18930222E+03  EK= 0.47482E+00 SP= -.97E+00 SK= 0.77E+00
8903121E+03 F= -.18930470E+03 E0= -.18930222E+03  EK= 0.47482E+00 SP     10 T=   136. E= -.18903121E+03 F= -.18930470E+03 E0= -.18930222E+03  EK= 0.47482E+00 SP= -.97E+00 SK= 0.77E+00
8903121E+03 F= -.18930470E+03 E0= -.18930222E+03  EK= 0.47482E+00 SP     10 T=   136. E= -.18903121E+03 F= -.18930470E+03 E0= -.18930222E+03  EK= 0.47482E+00 SP     10 T=   136. E= -.18903121E+03 F= -.18930470E+03 E0= -.18930222E+03  EK= 0.47482E+00 SP= -.97E+00 SK= 0.77E+00
8903121E+03 F= -.18930470E+03 E0= -.18930222E+03  EK= 0.47482E+00 SP     10 T=   136. E= -.18903121E+03 F= -.18930470E+03 E0= -.18930222E+03  EK= 0.47482E+00 SP     10 T=   136. E= -.18903121E+03 F= -.18930470E+03 E0= -.18930222E+03  EK= 0.47482E+00 SP= -.97E+00 SK= 0.77E+00
8903121E+03 F= -.18930470E+03 E0= -.18930222E+03  EK= 0.47482E+00 SP     10 T=   136. E= -.18903121E+03 F= -.18930470E+03 E0= -.18930222E+03  EK= 0.47482E+00 SP= -.97E+00 SK= 0.77E+00
8903121E+03 F= -.18930470E+03 E0= -.18930222E+03  EK= 0.47482E+00 SP     10 T=   136. E= -.18903121E+03 F= -.18930470E+03 E0= -.18930222E+03  EK= 0.47482E+00 SP     10 T=   136. E= -.18903121E+03 F= -.18930470E+03 E0= -.18930222E+03  EK= 0.47482E+00 SP     10 T=   136. E= -.18903121E+03 F= -.18930470E+03 E0= -.18930222E+03  EK= 0.47482E+00 SP     10 T=   136. E= -.18903121E+03 F= -.18930470E+03 E0= -.18930222E+03  EK= 0.47482E+00 SP     10 T=   136. E= -.18903121E+03 F= -.18930470E+03 E0= -.18930222E+03  EK= 0.47482E+00 SP= -.97E+00 SK= 0.77E+00
8903121E+03 F= -.18930470E+03 E0= -.18930222E+03  EK= 0.47482E+00 SP     10 T=   136. E= -.18903121E+03 F= -.18930470E+03 E0= -.18930222E+03  EK= 0.47482E+00 SP= -.97E+00 SK= 0.77E+00
8903121E+03 F= -.18930470E+03 E0= -.18930222E+03  EK= 0.47482E+00 SP     10 T=   136. E= -.18903121E+03 F= -.18930470E+03 E0= -.18930222E+03  EK= 0.47482E+00 SP     10 T=   136. E= -.18903121E+03 F= -.18930470E+03 E0= -.18930222E+03  EK= 0.47482E+00 SP     10 T=   136. E= -.18903121E+03 F= -.18930470E+03 E0= -.18930222E+03  EK= 0.47482E+00 SP     10 T=   136. E= -.18903121E+03 F= -.18930470E+03 E0= -.18930222E+03  EK= 0.47482E+00 SP= -.97E+00 SK= 0.77E+00
8903121E+03 F= -.18930470E+03 E0= -.18930222E+03  EK= 0.47482E+00 SP     10 T=   136. E= -.18903121E+03 F= -.18930470E+03 E0= -.18930222E+03  EK= 0.47482E+00 SP= -.97E+00 SKDAV:   5    -0.189335657620E+03    0.17920E-02   -0.45611E-03   248   0.557E-01    0.246E-01DDAV:   6    -0.189335179735E+03    0.47789E-03   -0.90616E-04   176   0.265E-01    0.786E-02DDAV:   7    -0.189335135126E+03    0.44609E-04   -0.22563E-04   144   0.133E-01
     11 T=   175. E= -.18903037E+03 F= -.18933514E+03 E0= -.18933273E+03  EK= 0.61232E+00 SP     11 T=   175. E= -.18903037E+03 F= -.18933514E+03 E0= -.18933273E+03  EK= 0.61232E+00 SP= -.12E+01 SK= 0.87E+00
8903037E+03 F= -.18933514E+03 E0= -.18933273E+03  EK= 0.61232E+00 SP     11 T=   175. E= -.18903037E+03 F= -.18933514E+03 E0= -.18933273E+03  EK= 0.61232E+00 SP= -.12E+01 SK= 0.87E+00
8903037E+03 F= -.18933514E+03 E0= -.18933273E+03  EK= 0.61232E+00 SP     11 T=   175. E= -.18903037E+03 F= -.18933514E+03 E0= -.18933273E+03  EK= 0.61232E+00 SP     11 T=   175. E= -.18903037E+03 F= -.18933514E+03 E0= -.18933273E+03  EK= 0.61232E+00 SP     11 T=   175. E= -.18903037E+03 F= -.18933514E+03 E0= -.18933273E+03  EK= 0.61232E+00 SP     11 T=   175. E= -.18903037E+03 F= -.18933514E+03 E0= -.18933273E+03  EK= 0.61232E+00 SP     11 T=   175. E= -.18903037E+03 F= -.18933514E+03 E0= -.18933273E+03  EK= 0.61232E+00 SP= -.12E+01 SK= 0.87E+00
8903037E+03 F= -.18933514E+03 E0= -.18933273E+03  EK= 0.61232E+00 SP     11 T=   175. E= -.18903037E+03 F= -.18933514E+03 E0= -.18933273E+03  EK= 0.61232E+00 SP     11 T=   175. E= -.18903037E+03 F= -.18933514E+03 E0= -.18933273E+03  EK= 0.61232E+00 SP     11 T=   175. E= -.18903037E+03 F= -.18933514E+03 E0= -.18933273E+03  EK= 0.61232E+00 SP     11 T=   175. E= -.18903037E+03 F= -.18933514E+03 E0= -.18933273E+03  EK= 0.61232E+00 SP     11 T=   175. E= -.18903037E+03 F= -.18933514E+03 E0= -.18933273E+03  EK= 0.61232E+00 SP= -.12E+01 SK= 0.87E+00
8903037E+03 F= -.18933514E+03 E0= -.18933273E+03  EK= 0.61232E+00 SP     11 T=   175. E= -.18903037E+03 F= -.18933514E+03 E0= -.18933273E+03  EK= 0.61232E+00 SP= -.12E+01 SK= 0.87E+00
8903037E+03 F= -.18933514E+03 E0= -.18933273E+03  EK= 0.61232E+00 SP     11 T=   175. E= -.18903037E+03 F= -.18933514E+03 E0= -.18933273E+03  EK= 0.61232E+00 SP= -.12E+01 SK= 0.87E+00
8903037E+03 F= -.18933514E+03 E0= -.18933273E+03  EK= 0.61232E+00 SP     11 T=   175. E= -.18903037E+03 F= -.18933514E+03 E0= -.18933273E+03  EK= 0.61232E+00 SP     11 T=   175. E= -.18903037E+03 F= -.18933514E+03 E0= -.18933273E+03  EK= 0.61232E+00 SP     11 T=   175. E= -.18903037E+03 F= -.18933514E+03 E0= -.18933273E+03  EK= 0.61232E+00 SP     11 T=   175. E= -.18903037E+03 F= -.18933514E+03 E0= -.18933273E+03  EK= 0.61232E+00 SP     11 T=   175. E= -.18903037E+03 F= -.18933514E+03 E0= -.18933273E+03  EK= 0.61232E+00 SP     11 T=   175. E= -.18903037E+03 F= -.18933514E+03 E0= -.18933273E+03  EK= 0.61232E+00 SP= -.12E+01 SK= 0.87E+00
8903037E+03 F= -.18933514E+03 E0= -.18933273E+03  EK= 0.61232E+00 SP= -.12E+01 SK= 0.87E+00
8903037E+03 F= -.18933514E+03 E0= -.18933273E+03  EK= 0.61232E+00 SP     11 T=   175. E= -.18903037E+03 F= -.18933514E+03 E0= -.18933273E+03  EK= 0.61232E+00 SP     11 T=   175. E= -.18903037E+03 F= -.18933514E+03 E0= -.18933273E+03  EK= 0.61232E+00 SP= -.12E+01 SK= 0.87E+00
8903037E+03 F= -.18933514E+03 E0= -.18933273E+03  EK= 0.61232E+00 SP     11 T=   175. E= -.18903037E+03 F= -.18933514E+03 E0= -.18933273E+03  EK= 0.61232E+00 SP= -.12E+01 SK= 0.87E+00
8903037E+03 F= -.18933514E+03 E0= -.18933273E+03  EK= 0.61232E+00 SP     11 T=   175. E= -.18903037E+03 F= -.18933514E+03 E0= -.18933273E+03  EK= 0.61232E+00 SP     11 T=   175. E= -.18903037E+03 F= -.18933514E+03 E0= -.18933273E+03  EK= 0.61232E+00 SP     11 T=   175. E= -.18903037E+03 F= -.18933514E+03 E0= -.18933273E+03  EK= 0.61232E+00 SP     11 T=   175. E= -.18903037E+03 F= -.18933514E+03 E0= -.18933273E+03  EK= 0.61232E+00 SP     11 T=   175. E= -.18903037E+03 F= -.18933514E+03 E0= -.18933273E+03  EK= 0.61232E+00 SP= -.12E+01 SK= 0.87E+00
8903037E+03 F= -.18933514E+03 E0= -.18933273E+03  EK= 0.61232E+00 SP     11 T=   175. E= -.18903037E+03 F= -.18933514E+03 E0= -.18933273E+03  EK= 0.61232E+00 SP     11 T=   175. E= -.18903037E+03 F= -.18933514E+03 E0= -.18933273E+03  EK= 0.61232E+00 SP     11 T=   175. E= -.18903037E+03 F= -.18933514E+03 E0= -.18933273E+03  EK= 0.61232E+00 SP= -.12E+01 SK= 0.87E+00
8903037E+03 F= -.18933514E+03 E0= -.18933273E+03  EK= 0.61232E+00 SP     11 T=   175. E= -.18903037E+03 F= -.18933514E+03 E0= -.18933273E+03  EK= 0.61232E+00 SP= -.12E+01 SK= 0.87E+00
-0.189356980781E+03    0.11944E-02   -0.19535E-03   240   0.319E-01    0.276E-01DDAV:   6    -0.189356539544E+03    0.44124E-03   -0.48978E-04   152   0.252E-01    0.139E-01
DAV:   7    -0.189356507120E+03    0.32425E-04   -0.17201E-04   128   0.153E-01
     12 T=   223. E= -.18902944E+03 F= -.18935651E+03 E0= -.18935416E+03  EK= 0.77756E+00 SP= -.14E+01 SK= 0.95E+00
8902944E+03 F= -.18935651E+03 E0= -.18935416E+03  EK= 0.77756E+00 SP     12 T=   223. E= -.18902944E+03 F= -.18935651E+03 E0= -.18935416E+03  EK= 0.77756E+00 SP     12 T=   223. E= -.18902944E+03 F= -.18935651E+03 E0= -.18935416E+03  EK= 0.77756E+00 SP     12 T=   223. E= -.18902944E+03 F= -.18935651E+03 E0= -.18935416E+03  EK= 0.77756E+00 SP     12 T=   223. E= -.18902944E+03 F= -.18935651E+03 E0= -.18935416E+03  EK= 0.77756E+00 SP     12 T=   223. E= -.18902944E+03 F= -.18935651E+03 E0= -.18935416E+03  EK= 0.77756E+00 SP     12 T=   223. E= -.18902944E+03 F= -.18935651E+03 E0= -.18935416E+03  EK= 0.77756E+00 SP     12 T=   223. E= -.18902944E+03 F= -.18935651E+03 E0= -.18935416E+03  EK= 0.77756E+00 SP     12 T=   223. E= -.18902944E+03 F= -.18935651E+03 E0= -.18935416E+03  EK= 0.77756E+00 SP= -.14E+01 SK= 0.95E+00
8902944E+03 F= -.18935651E+03 E0= -.18935416E+03  EK= 0.77756E+00 SP     12 T=   223. E= -.18902944E+03 F= -.18935651E+03 E0= -.18935416E+03  EK= 0.77756E+00 SP     12 T=   223. E= -.18902944E+03 F= -.18935651E+03 E0= -.18935416E+03  EK= 0.77756E+00 SP     12 T=   223. E= -.18902944E+03 F= -.18935651E+03 E0= -.18935416E+03  EK= 0.77756E+00 SP     12 T=   223. E= -.18902944E+03 F= -.18935651E+03 E0= -.18935416E+03  EK= 0.77756E+00 SP= -.14E+01 SK= 0.95E+00
8902944E+03 F= -.18935651E+03 E0= -.18935416E+03  EK= 0.77756E+00 SP     12 T=   223. E= -.18902944E+03 F= -.18935651E+03 E0= -.18935416E+03  EK= 0.77756E+00 SP     12 T=   223. E= -.18902944E+03 F= -.18935651E+03 E0= -.18935416E+03  EK= 0.77756E+00 SP     12 T=   223. E= -.18902944E+03 F= -.18935651E+03 E0= -.18935416E+03  EK= 0.77756E+00 SP= -.14E+01 SK= 0.95E+00
8902944E+03 F= -.18935651E+03 E0= -.18935416E+03  EK= 0.77756E+00 SP     12 T=   223. E= -.18902944E+03 F= -.18935651E+03 E0= -.18935416E+03  EK= 0.77756E+00 SP     12 T=   223. E= -.18902944E+03 F= -.18935651E+03 E0= -.18935416E+03  EK= 0.77756E+00 SP     12 T=   223. E= -.18902944E+03 F= -.18935651E+03 E0= -.18935416E+03  EK= 0.77756E+00 SP= -.14E+01 SK= 0.95E+00
8902944E+03 F= -.18935651E+03 E0= -.18935416E+03  EK= 0.77756E+00 SP     12 T=   223. E= -.18902944E+03 F= -.18935651E+03 E0= -.18935416E+03  EK= 0.77756E+00 SP= -.14E+01 SK= 0.95E+00
8902944E+03 F= -.18935651E+03 E0= -.18935416E+03  EK= 0.77756E+00 SP= -.14E+01 SK= 0.95E+00
8902944E+03 F= -.18935651E+03 E0= -.18935416E+03  EK= 0.77756E+00 SP     12 T=   223. E= -.18902944E+03 F= -.18935651E+03 E0= -.18935416E+03  EK= 0.77756E+00 SP     12 T=   223. E= -.18902944E+03 F= -.18935651E+03 E0= -.18935416E+03  EK= 0.77756E+00 SP= -.14E+01 SK= 0.95E+00
8902944E+03 F= -.18935651E+03 E0= -.18935416E+03  EK= 0.77756E+00 SP     12 T=   223. E= -.18902944E+03 F= -.18935651E+03 E0= -.18935416E+03  EK= 0.77756E+00 SP     12 T=   223. E= -.18902944E+03 F= -.18935651E+03 E0= -.18935416E+03  EK= 0.77756E+00 SP     12 T=   223. E= -.18902944E+03 F= -.18935651E+03 E0= -.18935416E+03  EK= 0.77756E+00 SP= -.14E+01 SK= 0.95E+00
8902944E+03 F= -.18935651E+03 E0= -.18935416E+03  EK= 0.77756E+00 SP= -.14E+01 SK= 0.95E+00
8902944E+03 F= -.18935651E+03 E0= -.18935416E+03  EK= 0.77756E+00 SP     12 T=   223. E= -.18902944E+03 F= -.18935651E+03 E0= -.18935416E+03  EK= 0.77756E+00 SP     12 T=   223. E= -.18902944E+03 F= -.18935651E+03 E0= -.18935416E+03  EK= 0.77756E+00 SP= -.14E+01 SK= 0.95E+00
8902944E+03 F= -.18935651E+03 E0= -.18935416E+03  EK= 0.77756E+00 SP     12 T=   223. E= -.18902944E+03 F= -.18935651E+03 E0= -.18935416E+03  EK= 0.77756E+00 SP     12 T=   223. E= -.18902944E+03 F= -.18935651E+03 E0= -.18935416E+03  EK= 0.77756E+00 SP     12 T=   223. E= -.18902944E+03 F= -.18935651E+03 E0= -.18935416E+03  EK= 0.77756E+00 SP     12 T=   223. E= -.18902944E+03 F= -.18935651E+03 E0= -.18935416E+03  EK= 0.77756E+00 SP= -.14E+01 SK= 0.95E+00
8902944E+03 F= -.18935651E+03 E0= -.18935416E+03  EK= 0.77756E+00 SP     12 T=   223. E= -.18902944E+03 F= -.18935651E+03 E0= -.18935416E+03  EK= 0.77756E+00 SP= -.14E+01 SK= 0.95E+00
8902944E+03 F= -.18935651E+03 E0= -.18935416E+03  EK= 0.77756E+00 SP     12 T=   223. E= -.18902944E+03 F= -.18935651E+03 E0= -.18935416E+03  EK= 0.77756E+00 SP     12 T=   223. E= -.18902944E+03 F= -.18935651E+03 E0= -.18935416E+03  EK= 0.77756E+00 SP     12 T=   223. E= -.18902944E+03 F= -.18935651E+03 E0= -.18935416E+03  EK= 0.77756E+00 SP     12 T=   223. E= -.18902944E+03 F= -.18935651E+03 E0= -.18935416E+03  EK= 0.77756E+00 SP     12 T=   223. E= -.18902944E+03 F= -.18935651E+03 E0= -.18935416E+03  EK= 0.77756E+00 SP     12 T=   223. E= -.18902944E+03 F= -.18935651E+03 E0= -.18935416E+03  EK= 0.77756E+00 SP     12 T=   223. E= -.18902944E+03 F= -.18935651E+03 E0= -.18935416E+03  EK= 0.77756E+00 SP= -.14E+01 SK= 0.95E+00
902860E+03 F= -.18936672E+03 E0= -.18936445E+03  EK= 0.97441E+00 SP     13 T=   279. E= -.18902860E+03 F= -.18936672E+03 E0= -.18936445E+03  EK= 0.97441E+00 SP     13 T=   279. E= -.18902860E+03 F= -.18936672E+03 E0= -.18936445E+03  EK= 0.97441E+00 SP     13 T=   279. E= -.18902860E+03 F= -.18936672E+03 E0= -.18936445E+03  EK= 0.97441E+00 SP= -.16E+01 SK= 0.98E+00
8902860E+03 F= -.18936672E+03 E0= -.18936445E+03  EK= 0.97441E+00 SP     13 T=   279. E= -.18902860E+03 F= -.18936672E+03 E0= -.18936445E+03  EK= 0.97441E+00 SP     13 T=   279. E= -.18902860E+03 F= -.18936672E+03 E0= -.18936445E+03  EK= 0.97441E+00 SP     13 T=   279. E= -.18902860E+03 F= -.18936672E+03 E0= -.18936445E+03  EK= 0.97441E+00 SP     13 T=   279. E= -.18902860E+03 F= -.18936672E+03 E0= -.18936445E+03  EK= 0.97441E+00 SP     13 T=   279. E= -.18902860E+03 F= -.18936672E+03 E0= -.18936445E+03  EK= 0.97441E+00 SP     13 T=   279. E= -.18902860E+03 F= -.18936672E+03 E0= -.18936445E+03  EK= 0.97441E+00 SP     13 T=   279. E= -.18902860E+03 F= -.18936672E+03 E0= -.18936445E+03  EK= 0.97441E+00 SP     13 T=   279. E= -.18902860E+03 F= -.18936672E+03 E0= -.18936445E+03  EK= 0.97441E+00 SP     13 T=   279. E= -.18902860E+03 F= -.18936672E+03 E0= -.18936445E+03  EK= 0.97441E+00 SP= -.16E+01 SK= 0.98E+00
8902860E+03 F= -.18936672E+03 E0= -.18936445E+03  EK= 0.97441E+00 SP= -.16E+01 SK= 0.98E+00
8902860E+03 F= -.18936672E+03 E0= -.18936445E+03  EK= 0.97441E+00 SP     13 T=   279. E= -.18902860E+03 F= -.18936672E+03 E0= -.18936445E+03  EK= 0.97441E+00 SP     13 T=   279. E= -.18902860E+03 F= -.18936672E+03 E0= -.18936445E+03  EK= 0.97441E+00 SP     13 T=   279. E= -.18902860E+03 F= -.18936672E+03 E0= -.18936445E+03  EK= 0.97441E+00 SP= -.16E+01 SK= 0.98E+00
8902860E+03 F= -.18936672E+03 E0= -.18936445E+03  EK= 0.97441E+00 SP     13 T=   279. E= -.18902860E+03 F= -.18936672E+03 E0= -.18936445E+03  EK= 0.97441E+00 SP     13 T=   279. E= -.18902860E+03 F= -.18936672E+03 E0= -.18936445E+03  EK= 0.97441E+00 SP= -.16E+01 SK= 0.98E+00
8902860E+03 F= -.18936672E+03 E0= -.18936445E+03  EK= 0.97441E+00 SP     13 T=   279. E= -.18902860E+03 F= -.18936672E+03 E0= -.18936445E+03  EK= 0.97441E+00 SP= -.16E+01 SK= 0.98E+00
8902860E+03 F= -.18936672E+03 E0= -.18936445E+03  EK= 0.97441E+00 SP     13 T=   279. E= -.18902860E+03 F= -.18936672E+03 E0= -.18936445E+03  EK= 0.97441E+00 SP= -.16E+01 SK= 0.98E+00
8902860E+03 F= -.18936672E+03 E0= -.18936445E+03  EK= 0.97441E+00 SP     13 T=   279. E= -.18902860E+03 F= -.18936672E+03 E0= -.18936445E+03  EK= 0.97441E+00 SP= -.16E+01 SK= 0.98E+00
8902860E+03 F= -.18936672E+03 E0= -.18936445E+03  EK= 0.97441E+00 SP     13 T=   279. E= -.18902860E+03 F= -.18936672E+03 E0= -.18936445E+03  EK= 0.97441E+00 SP= -.16E+01 SK= 0.98E+00
8902860E+03 F= -.18936672E+03 E0= -.18936445E+03  EK= 0.97441E+00 SP     13 T=   279. E= -.18902860E+03 F= -.18936672E+03 E0= -.18936445E+03  EK= 0.97441E+00 SP= -.16E+01 SK= 0.98E+00
8902860E+03 F= -.18936672E+03 E0= -.18936445E+03  EK= 0.97441E+00 SP     13 T=   279. E= -.18902860E+03 F= -.18936672E+03 E0= -.18936445E+03  EK= 0.97441E+00 SP     13 T=   279. E= -.18902860E+03 F= -.18936672E+03 E0= -.18936445E+03  EK= 0.97441E+00 SP     13 T=   279. E= -.18902860E+03 F= -.18936672E+03 E0= -.18936445E+03  EK= 0.97441E+00 SP     13 T=   279. E= -.18902860E+03 F= -.18936672E+03 E0= -.18936445E+03  EK= 0.97441E+00 SP     13 T=   279. E= -.18902860E+03 F= -.18936672E+03 E0= -.18936445E+03  EK= 0.97441E+00 SP= -.16E+01 SK= 0.98E+00
 -0.189363892489E+03    0.17366E-03   -0.34323E-04   160   0.191E-01    0.134E-01DDAV:   6    -0.189363857295E+03    0.35194E-04   -0.17378E-04   144   0.178E-01
     14 T=   345. E= -.18902786E+03 F= -.18936386E+03 E0= -.18936171E+03  EK= 0.12055E+01 SP     14 T=   345. E= -.18902786E+03 F= -.18936386E+03 E0= -.18936171E+03  EK= 0.12055E+01 SP= -.18E+01 SK= 0.98E+00
02860E+03 F= -.18936672E+03 E0= -.18936445E+03  EK= 0.97441E+00 SP= -.16E+01 SK= 0.98E+00
8902860E+03 F= -.18936672E+03 E0= -.18936445E+03  EK= 0.97441E+00 SP= -.16E+01 SKDAV:   5    -0.189363892489E+03    0.17366E-03   -0.34323E-04   160   0.191E-01    0.134E-01
DAV:   6    -0.189363857295E+03    0.35194E-04   -0.17378E-04   144   0.178E-01
     14 T=   345. E= -.18902786E+03 F= -.18936386E+03 E0= -.18936171E+03  EK= 0.12055E+01 SP= -.18E+01 SK= 0.98E+00
02860E+03 F= -.18936672E+03 E0= -.18936445E+03  EK= 0.97441E+00 SP= -.16E+01 SKDAV:   5    -0.189363892489E+03    0.17366E-03   -0.34323E-04   160   0.191E-01    0.134E-01DDAV:   6    -0.189363857295E+03    0.35194E-04   -0.17378E-04   144   0.178E-01
     14 T=   345. E= -.18902786E+03 F= -.18936386E+03 E0= -.18936171E+03  EK= 0.12055E+01 SP= -.18E+01 SK= 0.98E+00
8902786E+03 F= -.18936386E+03 E0= -.18936171E+03  EK= 0.12055E+01 SP= -.18E+01 SK= 0.98E+00
-0.189363857295E+03    0.35194E-04   -0.17378E-04   144   0.178E-01
     14 T=   345. E= -.18902786E+03 F= -.18936386E+03 E0= -.18936171E+03  EK= 0.12055E+01 SP= -.18E+01 SK= 0.98E+00
-0.189363857295E+03    0.35194E-04   -0.17378E-04   144   0.178E-01
     14 T=   345. E= -.18902786E+03 F= -.18936386E+03 E0= -.18936171E+03  EK= 0.12055E+01 SP= -.18E+01 SK= 0.98E+00
8902786E+03 F= -.18936386E+03 E0= -.18936171E+03  EK= 0.12055E+01 SP     14 T=   345. E= -.18902786E+03 F= -.18936386E+03 E0= -.18936171E+03  EK= 0.12055E+01 SP= -.18E+01 SK= 0.98E+00
-0.189363857295E+03    0.35194E-04   -0.17378E-04   144   0.178E-01
     14 T=   345. E= -.18902786E+03 F= -.18936386E+03 E0= -.18936171E+03  EK= 0.12055E+01 SP     14 T=   345. E= -.18902786E+03 F= -.18936386E+03 E0= -.18936171E+03  EK= 0.12055E+01 SP     14 T=   345. E= -.18902786E+03 F= -.18936386E+03 E0= -.18936171E+03  EK= 0.12055E+01 SP     14 T=   345. E= -.18902786E+03 F= -.18936386E+03 E0= -.18936171E+03  EK= 0.12055E+01 SP     14 T=   345. E= -.18902786E+03 F= -.18936386E+03 E0= -.18936171E+03  EK= 0.12055E+01 SP     14 T=   345. E= -.18902786E+03 F= -.18936386E+03 E0= -.18936171E+03  EK= 0.12055E+01 SP     14 T=   345. E= -.18902786E+03 F= -.18936386E+03 E0= -.18936171E+03  EK= 0.12055E+01 SP     14 T=   345. E= -.18902786E+03 F= -.18936386E+03 E0= -.18936171E+03  EK= 0.12055E+01 SP     14 T=   345. E= -.18902786E+03 F= -.18936386E+03 E0= -.18936171E+03  EK= 0.12055E+01 SP     14 T=   345. E= -.18902786E+03 F= -.18936386E+03 E0= -.18936171E+03  EK= 0.12055E+01 SP= -.18E+01 SK= 0.98E+00
8902786E+03 F= -.18936386E+03 E0= -.18936171E+03  EK= 0.12055E+01 SP= -.18E+01 SK= 0.98E+00
8902786E+03 F= -.18936386E+03 E0= -.18936171E+03  EK= 0.12055E+01 SP     14 T=   345. E= -.18902786E+03 F= -.18936386E+03 E0= -.18936171E+03  EK= 0.12055E+01 SP     14 T=   345. E= -.18902786E+03 F= -.18936386E+03 E0= -.18936171E+03  EK= 0.12055E+01 SP= -.18E+01 SK= 0.98E+00
8902786E+03 F= -.18936386E+03 E0= -.18936171E+03  EK= 0.12055E+01 SP= -.18E+01 SK= 0.98E+00
8902786E+03 F= -.18936386E+03 E0= -.18936171E+03  EK= 0.12055E+01 SP     14 T=   345. E= -.18902786E+03 F= -.18936386E+03 E0= -.18936171E+03  EK= 0.12055E+01 SP     14 T=   345. E= -.18902786E+03 F= -.18936386E+03 E0= -.18936171E+03  EK= 0.12055E+01 SP= -.18E+01 SK= 0.98E+00
8902786E+03 F= -.18936386E+03 E0= -.18936171E+03  EK= 0.12055E+01 SP     14 T=   345. E= -.18902786E+03 F= -.18936386E+03 E0= -.18936171E+03  EK= 0.12055E+01 SP= -.18E+01 SK= 0.98E+00
8902786E+03 F= -.18936386E+03 E0= -.18936171E+03  EK= 0.12055E+01 SP     14 T=   345. E= -.18902786E+03 F= -.18936386E+03 E0= -.18936171E+03  EK= 0.12055E+01 SP     14 T=   345. E= -.18902786E+03 F= -.18936386E+03 E0= -.18936171E+03  EK= 0.12055E+01 SP     14 T=   345. E= -.18902786E+03 F= -.18936386E+03 E0= -.18936171E+03  EK= 0.12055E+01 SP     14 T=   345. E= -.18902786E+03 F= -.18936386E+03 E0= -.18936171E+03  EK= 0.12055E+01 SP     14 T=   345. E= -.18902786E+03 F= -.18936386E+03 E0= -.18936171E+03  EK= 0.12055E+01 SP     14 T=   345. E= -.18902786E+03 F= -.18936386E+03 E0= -.18936171E+03  EK= 0.12055E+01 SP= -.18E+01 SK= 0.98E+00
8902786E+03 F= -.18936386E+03 E0= -.18936171E+03  EK= 0.12055E+01 SP     14 T=   345. E= -.18902786E+03 F= -.18936386E+03 E0= -.18936171E+03  EK= 0.12055E+01 SP= -.18E+01 SK= 0.98E+00
8902786E+03 F= -.18936386E+03 E0= -.18936171E+03  EK= 0.12055E+01 SP     14 T=   345. E= -.18902786E+03 F= -.18936386E+03 E0= -.18936171E+03  EK= 0.12055E+01 SP     14 T=   345. E= -.18902786E+03 F= -.18936386E+03 E0= -.18936171E+03  EK= 0.12055E+01 SP     14 T=   345. E= -.18902786E+03 F= -.18936386E+03 E0= -.18936171E+03  EK= 0.12055E+01 SP     14 T=   345. E= -.18902786E+03 F= -.18936386E+03 E0= -.18936171E+03  EK= 0.12055E+01 SP= -.18E+01 SK= 0.98E+00
8902786E+03 F= -.18936386E+03 E0= -.18936171E+03  EK= 0.12055E+01 SP     14 T=   345. E= -.18902786E+03 F= -.18936386E+03 E0= -.18936171E+03  EK= 0.12055E+01 SP= -.18E+01 SK= 0.98E+00
8902786E+03 F= -.18936386E+03 E0= -.18936171E+03  EK= 0.12055E+01 SP     14 T=   345. E= -.18902786E+03 F= -.18936386E+03 E0= -.18936171E+03  EK= 0.12055E+01 SP     14 T=   345. E= -.18902786E+03 F= -.18936386E+03 E0= -.18936171E+03  EK= 0.12055E+01 SP     14 T=   345. E= -.18902786E+03 F= -.18936386E+03 E0= -.18936171E+03  EK= 0.12055E+01 SP     14 T=   345. E= -.18902786E+03 F= -.18936386E+03 E0= -.18936171E+03  EK= 0.12055E+01 SP= -.18E+01 SKDAV:   7    -0.189346862356E+03    0.12360E-03   -0.20401E-04   144   0.189E-01    0.586E-02DDAV:   8    -0.189346886012E+03   -0.23655E-04   -0.24852E-04   136   0.131E-01
     15 T=   421. E= -.18902762E+03 F= -.18934689E+03 E0= -.18934484E+03  EK= 0.14705E+01 SP     15 T=   421. E= -.18902762E+03 F= -.18934689E+03 E0= -.18934484E+03  EK= 0.14705E+01 SP     15 T=   421. E= -.18902762E+03 F= -.18934689E+03 E0= -.18934484E+03  EK= 0.14705E+01 SP     15 T=   421. E= -.18902762E+03 F= -.18934689E+03 E0= -.18934484E+03  EK= 0.14705E+01 SP     15 T=   421. E= -.18902762E+03 F= -.18934689E+03 E0= -.18934484E+03  EK= 0.14705E+01 SP     15 T=   421. E= -.18902762E+03 F= -.18934689E+03 E0= -.18934484E+03  EK= 0.14705E+01 SP     15 T=   421. E= -.18902762E+03 F= -.18934689E+03 E0= -.18934484E+03  EK= 0.14705E+01 SP     15 T=   421. E= -.18902762E+03 F= -.18934689E+03 E0= -.18934484E+03  EK= 0.14705E+01 SP     15 T=   421. E= -.18902762E+03 F= -.18934689E+03 E0= -.18934484E+03  EK= 0.14705E+01 SP     15 T=   421. E= -.18902762E+03 F= -.18934689E+03 E0= -.18934484E+03  EK= 0.14705E+01 SP     15 T=   421. E= -.18902762E+03 F= -.18934689E+03 E0= -.18934484E+03  EK= 0.14705E+01 SP     15 T=   421. E= -.18902762E+03 F= -.18934689E+03 E0= -.18934484E+03  EK= 0.14705E+01 SP     15 T=   421. E= -.18902762E+03 F= -.18934689E+03 E0= -.18934484E+03  EK= 0.14705E+01 SP     15 T=   421. E= -.18902762E+03 F= -.18934689E+03 E0= -.18934484E+03  EK= 0.14705E+01 SP     15 T=   421. E= -.18902762E+03 F= -.18934689E+03 E0= -.18934484E+03  EK= 0.14705E+01 SP     15 T=   421. E= -.18902762E+03 F= -.18934689E+03 E0= -.18934484E+03  EK= 0.14705E+01 SP= -.21E+01 SK= 0.92E+00
8902762E+03 F= -.18934689E+03 E0= -.18934484E+03  EK= 0.14705E+01 SP     15 T=   421. E= -.18902762E+03 F= -.18934689E+03 E0= -.18934484E+03  EK= 0.14705E+01 SP= -.21E+01 SK= 0.92E+00
8902762E+03 F= -.18934689E+03 E0= -.18934484E+03  EK= 0.14705E+01 SP     15 T=   421. E= -.18902762E+03 F= -.18934689E+03 E0= -.18934484E+03  EK= 0.14705E+01 SP     15 T=   421. E= -.18902762E+03 F= -.18934689E+03 E0= -.18934484E+03  EK= 0.14705E+01 SP     15 T=   421. E= -.18902762E+03 F= -.18934689E+03 E0= -.18934484E+03  EK= 0.14705E+01 SP     15 T=   421. E= -.18902762E+03 F= -.18934689E+03 E0= -.18934484E+03  EK= 0.14705E+01 SP     15 T=   421. E= -.18902762E+03 F= -.18934689E+03 E0= -.18934484E+03  EK= 0.14705E+01 SP     15 T=   421. E= -.18902762E+03 F= -.18934689E+03 E0= -.18934484E+03  EK= 0.14705E+01 SP= -.21E+01 SK= 0.92E+00
8902762E+03 F= -.18934689E+03 E0= -.18934484E+03  EK= 0.14705E+01 SP     15 T=   421. E= -.18902762E+03 F= -.18934689E+03 E0= -.18934484E+03  EK= 0.14705E+01 SP     15 T=   421. E= -.18902762E+03 F= -.18934689E+03 E0= -.18934484E+03  EK= 0.14705E+01 SP     15 T=   421. E= -.18902762E+03 F= -.18934689E+03 E0= -.18934484E+03  EK= 0.14705E+01 SP= -.21E+01 SK= 0.92E+00
8902762E+03 F= -.18934689E+03 E0= -.18934484E+03  EK= 0.14705E+01 SP     15 T=   421. E= -.18902762E+03 F= -.18934689E+03 E0= -.18934484E+03  EK= 0.14705E+01 SP     15 T=   421. E= -.18902762E+03 F= -.18934689E+03 E0= -.18934484E+03  EK= 0.14705E+01 SP     15 T=   421. E= -.18902762E+03 F= -.18934689E+03 E0= -.18934484E+03  EK= 0.14705E+01 SP= -.21E+01 SK= 0.92E+00
8902762E+03 F= -.18934689E+03 E0= -.18934484E+03  EK= 0.14705E+01 SP     15 T=   421. E= -.18902762E+03 F= -.18934689E+03 E0= -.18934484E+03  EK= 0.14705E+01 SP     15 T=   421. E= -.18902762E+03 F= -.18934689E+03 E0= -.18934484E+03  EK= 0.14705E+01 SP     15 T=   421. E= -.18902762E+03 F= -.18934689E+03 E0= -.18934484E+03  EK= 0.14705E+01 SP     15 T=   421. E= -.18902762E+03 F= -.18934689E+03 E0= -.18934484E+03  EK= 0.14705E+01 SP     15 T=   421. E= -.18902762E+03 F= -.18934689E+03 E0= -.18934484E+03  EK= 0.14705E+01 SP= -.21E+01 SK= 0.92E+00
8902762E+03 F= -.18934689E+03 E0= -.18934484E+03  EK= 0.14705E+01 SP     15 T=   421. E= -.18902762E+03 F= -.18934689E+03 E0= -.18934484E+03  EK= 0.14705E+01 SP     15 T=   421. E= -.18902762E+03 F= -.18934689E+03 E0= -.18934484E+03  EK= 0.14705E+01 SP     15 T=   421. E= -.18902762E+03 F= -.18934689E+03 E0= -.18934484E+03  EK= 0.14705E+01 SP     15 T=   421. E= -.18902762E+03 F= -.18934689E+03 E0= -.18934484E+03  EK= 0.14705E+01 SP     15 T=   421. E= -.18902762E+03 F= -.18934689E+03 E0= -.18934484E+03  EK= 0.14705E+01 SP     15 T=  DAV:   7    -0.189315272600E+03    0.35567E-04   -0.12082E-04   120   0.124E-01
     16 T=   505. E= -.18902816E+03 F= -.18931527E+03 E0= -.18931331E+03  EK= 0.17632E+01 SP     16 T=   505. E= -.18902816E+03 F= -.18931527E+03 E0= -.18931331E+03  EK= 0.17632E+01 SP     16 T=   505. E= -.18902816E+03 F= -.18931527E+03 E0= -.18931331E+03  EK= 0.17632E+01 SP     16 T=   505. E= -.18902816E+03 F= -.18931527E+03 E0= -.18931331E+03  EK= 0.17632E+01 SP     16 T=   505. E= -.18902816E+03 F= -.18931527E+03 E0= -.18931331E+03  EK= 0.17632E+01 SP     16 T=   505. E= -.18902816E+03 F= -.18931527E+03 E0= -.18931331E+03  EK= 0.17632E+01 SP     16 T=   505. E= -.18902816E+03 F= -.18931527E+03 E0= -.18931331E+03  EK= 0.17632E+01 SP     16 T=   505. E= -.18902816E+03 F= -.18931527E+03 E0= -.18931331E+03  EK= 0.17632E+01 SP     16 T=   505. E= -.18902816E+03 F= -.18931527E+03 E0= -.18931331E+03  EK= 0.17632E+01 SP= -.23E+01 SK= 0.80E+00
8902816E+03 F= -.18931527E+03 E0= -.18931331E+03  EK= 0.17632E+01 SP     16 T=   505. E= -.18902816E+03 F= -.18931527E+03 E0= -.18931331E+03  EK= 0.17632E+01 SP     16 T=   505. E= -.18902816E+03 F= -.18931527E+03 E0= -.18931331E+03  EK= 0.17632E+01 SP     16 T=   505. E= -.18902816E+03 F= -.18931527E+03 E0= -.18931331E+03  EK= 0.17632E+01 SP     16 T=   505. E= -.18902816E+03 F= -.18931527E+03 E0= -.18931331E+03  EK= 0.17632E+01 SP     16 T=   505. E= -.18902816E+03 F= -.18931527E+03 E0= -.18931331E+03  EK= 0.17632E+01 SP= -.23E+01 SK= 0.80E+00
8902816E+03 F= -.18931527E+03 E0= -.18931331E+03  EK= 0.17632E+01 SP     16 T=   505. E= -.18902816E+03 F= -.18931527E+03 E0= -.18931331E+03  EK= 0.17632E+01 SP= -.23E+01 SK= 0.80E+00
8902816E+03 F= -.18931527E+03 E0= -.18931331E+03  EK= 0.17632E+01 SP     16 T=   505. E= -.18902816E+03 F= -.18931527E+03 E0= -.18931331E+03  EK= 0.17632E+01 SP     16 T=   505. E= -.18902816E+03 F= -.18931527E+03 E0= -.18931331E+03  EK= 0.17632E+01 SP     16 T=   505. E= -.18902816E+03 F= -.18931527E+03 E0= -.18931331E+03  EK= 0.17632E+01 SP     16 T=   505. E= -.18902816E+03 F= -.18931527E+03 E0= -.18931331E+03  EK= 0.17632E+01 SP= -.23E+01 SK= 0.80E+00
8902816E+03 F= -.18931527E+03 E0= -.18931331E+03  EK= 0.17632E+01 SP     16 T=   505. E= -.18902816E+03 F= -.18931527E+03 E0= -.18931331E+03  EK= 0.17632E+01 SP= -.23E+01 SK= 0.80E+00
8902816E+03 F= -.18931527E+03 E0= -.18931331E+03  EK= 0.17632E+01 SP     16 T=   505. E= -.18902816E+03 F= -.18931527E+03 E0= -.18931331E+03  EK= 0.17632E+01 SP     16 T=   505. E= -.18902816E+03 F= -.18931527E+03 E0= -.18931331E+03  EK= 0.17632E+01 SP     16 T=   505. E= -.18902816E+03 F= -.18931527E+03 E0= -.18931331E+03  EK= 0.17632E+01 SP= -.23E+01 SK= 0.80E+00
8902816E+03 F= -.18931527E+03 E0= -.18931331E+03  EK= 0.17632E+01 SP     16 T=   505. E= -.18902816E+03 F= -.18931527E+03 E0= -.18931331E+03  EK= 0.17632E+01 SP= -.23E+01 SK= 0.80E+00
8902816E+03 F= -.18931527E+03 E0= -.18931331E+03  EK= 0.17632E+01 SP     16 T=   505. E= -.18902816E+03 F= -.18931527E+03 E0= -.18931331E+03  EK= 0.17632E+01 SP= -.23E+01 SK= 0.80E+00
8902816E+03 F= -.18931527E+03 E0= -.18931331E+03  EK= 0.17632E+01 SP     16 T=  DAV:   7    -0.189315272600E+03    0.35567E-04   -0.12082E-04   120   0.124E-01
     16 T=   505. E= -.18902816E+03 F= -.18931527E+03 E0= -.18931331E+03  EK= 0.17632E+01 SP= -.23E+01 SK= 0.80E+00
8902816E+03 F= -.18931527E+03 E0= -.18931331E+03  EK= 0.17632E+01 SP= -.23E+01 SK= 0.80E+00
8902816E+03 F= -.18931527E+03 E0= -.18931331E+03  EK= 0.17632E+01 SP     16 T=   505. E= -.18902816E+03 F= -.18931527E+03 E0= -.18931331E+03  EK= 0.17632E+01 SP= -.23E+01 SK= 0.80E+00
8902816E+03 F= -.18931527E+03 E0= -.18931331E+03  EK= 0.17632E+01 SP     16 T=   505. E= -.18902816E+03 F= -.18931527E+03 E0= -.18931331E+03  EK= 0.17632E+01 SP= -.23E+01 SK= 0.80E+00
8902816E+03 F= -.18931527E+03 E0= -.18931331E+03  EK= 0.17632E+01 SP     16 T=   505. E= -.18902816E+03 F= -.18931527E+03 E0= -.18931331E+03  EK= 0.17632E+01 SP= -.23E+01 SK= 0.80E+00
8902816E+03 F= -.18931527E+03 E0= -.18931331E+03  EK= 0.17632E+01 SP     16 T=   505. E= -.18902816E+03 F= -.18931527E+03 E0= -.18931331E+03  EK= 0.17632E+01 SP= -.23E+01 SK= 0.80E+00
8902816E+03 F= -.18931527E+03 E0= -.18931331E+03  EK= 0.17632E+01 SP     16 T=   505. E= -.18902816E+03 F= -.18931527E+03 E0= -.18931331E+03  EK= 0.17632E+01 SP     16 T=   505. E= -.18902816E+03 F= -.18931527E+03 E0= -.18931331E+03  EK= 0.17632E+01 SP     16 T=   505. E= -.18902816E+03 F= -.18931527E+03 E0= -.18931331E+03  EK= 0.17632E+01 SP= -.23E+01 SK= 0.80E+00
2983E+03 F= -.18926953E+03 E0= -.18926767E+03  EK= 0.20692E+01 SP     17 T=   593. E= -.18902983E+03 F= -.18926953E+03 E0= -.18926767E+03  EK= 0.20692E+01 SP= -.25E+01 SK= 0.64E+00
8902983E+03 F= -.18926953E+03 E0= -.18926767E+03  EK= 0.20692E+01 SP     17 T=   593. E= -.18902983E+03 F= -.18926953E+03 E0= -.18926767E+03  EK= 0.20692E+01 SP     17 T=   593. E= -.18902983E+03 F= -.18926953E+03 E0= -.18926767E+03  EK= 0.20692E+01 SP     17 T=   593. E= -.18902983E+03 F= -.18926953E+03 E0= -.18926767E+03  EK= 0.20692E+01 SP= -.25E+01 SK= 0.64E+00
8902983E+03 F= -.18926953E+03 E0= -.18926767E+03  EK= 0.20692E+01 SP     17 T=   593. E= -.18902983E+03 F= -.18926953E+03 E0= -.18926767E+03  EK= 0.20692E+01 SP     17 T=   593. E= -.18902983E+03 F= -.18926953E+03 E0= -.18926767E+03  EK= 0.20692E+01 SP     17 T=   593. E= -.18902983E+03 F= -.18926953E+03 E0= -.18926767E+03  EK= 0.20692E+01 SP     17 T=   593. E= -.18902983E+03 F= -.18926953E+03 E0= -.18926767E+03  EK= 0.20692E+01 SP= -.25E+01 SK= 0.64E+00
8902983E+03 F= -.18926953E+03 E0= -.18926767E+03  EK= 0.20692E+01 SP= -.25E+01 SK= 0.64E+00
8902983E+03 F= -.18926953E+03 E0= -.18926767E+03  EK= 0.20692E+01 SP     17 T=   593. E= -.18902983E+03 F= -.18926953E+03 E0= -.18926767E+03  EK= 0.20692E+01 SP     17 T=   593. E= -.18902983E+03 F= -.18926953E+03 E0= -.18926767E+03  EK= 0.20692E+01 SP     17 T=   593. E= -.18902983E+03 F= -.18926953E+03 E0= -.18926767E+03  EK= 0.20692E+01 SP     17 T=   593. E= -.18902983E+03 F= -.18926953E+03 E0= -.18926767E+03  EK= 0.20692E+01 SP     17 T=   593. E= -.18902983E+03 F= -.18926953E+03 E0= -.18926767E+03  EK= 0.20692E+01 SP     17 T=   593. E= -.18902983E+03 F= -.18926953E+03 E0= -.18926767E+03  EK= 0.20692E+01 SP     17 T=   593. E= -.18902983E+03 F= -.18926953E+03 E0= -.18926767E+03  EK= 0.20692E+01 SP     17 T=   593. E= -.18902983E+03 F= -.18926953E+03 E0= -.18926767E+03  EK= 0.20692E+01 SP     17 T=   593. E= -.18902983E+03 F= -.18926953E+03 E0= -.18926767E+03  EK= 0.20692E+01 SP= -.25E+01 SK= 0.64E+00
8902983E+03 F= -.18926953E+03 E0= -.18926767E+03  EK= 0.20692E+01 SP     17 T=   593. E= -.18902983E+03 F= -.18926953E+03 E0= -.18926767E+03  EK= 0.20692E+01 SP= -.25E+01 SK= 0.64E+00
8902983E+03 F= -.18926953E+03 E0= -.18926767E+03  EK= 0.20692E+01 SP     17 T=   593. E= -.18902983E+03 F= -.18926953E+03 E0= -.18926767E+03  EK= 0.20692E+01 SP     17 T=   593. E= -.18902983E+03 F= -.18926953E+03 E0= -.18926767E+03  EK= 0.20692E+01 SP     17 T=   593. E= -.18902983E+03 F= -.18926953E+03 E0= -.18926767E+03  EK= 0.20692E+01 SP= -.25E+01 SK= 0.64E+00
8902983E+03 F= -.18926953E+03 E0= -.18926767E+03  EK= 0.20692E+01 SP= -.25E+01 SK= 0.64E+00
8902983E+03 F= -.18926953E+03 E0= -.18926767E+03  EK= 0.20692E+01 SP     17 T=   593. E= -.18902983E+03 F= -.18926953E+03 E0= -.18926767E+03  EK= 0.20692E+01 SP= -.25E+01 SK= 0.64E+00
8902983E+03 F= -.18926953E+03 E0= -.18926767E+03  EK= 0.20692E+01 SP= -.25E+01 SKDAV:   5    -0.189211436705E+03    0.16150E-02   -0.26504E-03   200   0.452E-01    0.217E-01
DAV:   6    -0.189211288430E+03    0.14828E-03   -0.47885E-04   152   0.280E-01    0.158E-01
DAV:   7    -0.189211114322E+03    0.17411E-03   -0.30039E-04   144   0.198E-01    0.560E-02
DAV:   8    -0.189211125965E+03   -0.11643E-04   -0.10445E-04   120   0.102E-01
     18 T=   677. E= -.18903246E+03 F= -.18921113E+03 E0= -.18920941E+03  EK= 0.23643E+01 SP= -.26E+01 SK= 0.45E+00
-0.189211125965E+03   -0.11643E-04   -0.10445E-04   120   0.102E-01
     18 T=   677. E= -.18903246E+03 F= -.18921113E+03 E0= -.18920941E+03  EK= 0.23643E+01 SP= -.26E+01 SK= 0.45E+00
.189211288430E+03    0.14828E-03   -0.47885E-04   152   0.280E-01    0.158E-01
DAV:   7    -0.189211114322E+03    0.17411E-03   -0.30039E-04   144   0.198E-01    0.560E-02
DAV:   8    -0.189211125965E+03   -0.11643E-04   -0.10445E-04   120   0.102E-01
     18 T=   677. E= -.18903246E+03 F= -.18921113E+03 E0= -.18920941E+03  EK= 0.23643E+01 SP= -.26E+01 SK= 0.45E+00
-0.189211125965E+03   -0.11643E-04   -0.10445E-04   120   0.102E-01
     18 T=   677. E= -.18903246E+03 F= -.18921113E+03 E0= -.18920941E+03  EK= 0.23643E+01 SP= -.26E+01 SK= 0.45E+00
-0.189211125965E+03   -0.11643E-04   -0.10445E-04   120   0.102E-01
     18 T=   677. E= -.18903246E+03 F= -.18921113E+03 E0= -.18920941E+03  EK= 0.23643E+01 SP= -.26E+01 SK= 0.45E+00
-0.189211125965E+03   -0.11643E-04   -0.10445E-04   120   0.102E-01
     18 T=   677. E= -.18903246E+03 F= -.18921113E+03 E0= -.18920941E+03  EK= 0.23643E+01 SP= -.26E+01 SK= 0.45E+00
189211436705E+03    0.16150E-02   -0.26504E-03   200   0.452E-01     17 T=   5DAV:   6    -0.189211288430E+03    0.14828E-03   -0.47885E-04   152   0.280E-0     17 T=   59DAV:   7    -0.189211114322E+03    0.17411E-03   -0.30039E-04   144   0.198E-01    0.560E-02
DAV:   8    -0.189211125965E+03   -0.11643E-04   -0.10445E-04   120   0.102E-01
     18 T=   677. E= -.18903246E+03 F= -.18921113E+03 E0= -.18920941E+03  EK= 0.23643E+01 SP= -.26E+01 SK= 0.45E+00
0.189211114322E+03    0.17411E-03   -0.30039E-04   144   0.198E-01    0.560E-02
DAV:   8    -0.189211125965E+03   -0.11643E-04   -0.10445E-04   120   0.102E-01
     18 T=   677. E= -.18903246E+03 F= -.18921113E+03 E0= -.18920941E+03  EK= 0.23643E+01 SP= -.26E+01 SK= 0.45E+00
0.189211114322E+03    0.17411E-03   -0.30039E-04   144   0.198E-01    0.560E-02
DAV:   8    -0.189211125965E+03   -0.11643E-04   -0.10445E-04   120   0.102E-01
     18 T=   677. E= -.18903246E+03 F= -.18921113E+03 E0= -.18920941E+03  EK= 0.23643E+01 SP= -.26E+01 SK= 0.45E+00
-0.189211125965E+03   -0.11643E-04   -0.10445E-04   120   0.102E-01
     18 T=   677. E= -.18903246E+03 F= -.18921113E+03 E0= -.18920941E+03  EK= 0.23643E+01 SP= -.26E+01 SK= 0.45E+00
-0.189211125965E+03   -0.11643E-04   -0.10445E-04   120   0.102E-01
     18 T=   677. E= -.18903246E+03 F= -.18921113E+03 E0= -.18920941E+03  EK= 0.23643E+01 SP     18 T=   677. E= -.18903246E+03 F= -.18921113E+03 E0= -.18920941E+03  EK= 0.23643E+01 SP     18 T=   677. E= -.18903246E+03 F= -.18921113E+03 E0= -.18920941E+03  EK= 0.23643E+01 SP     18 T=   677. E= -.18903246E+03 F= -.18921113E+03 E0= -.18920941E+03  EK= 0.23643E+01 SP= -.26E+01 SK= 0.45E+00
8903246E+03 F= -.18921113E+03 E0= -.18920941E+03  EK= 0.23643E+01 SP     18 T=   677. E= -.18903246E+03 F= -.18921113E+03 E0= -.18920941E+03  EK= 0.23643E+01 SP= -.26E+01 SK= 0.45E+00
8903246E+03 F= -.18921113E+03 E0= -.18920941E+03  EK= 0.23643E+01 SP= -.26E+01 SK= 0.45E+00
8903246E+03 F= -.18921113E+03 E0= -.18920941E+03  EK= 0.23643E+01 SP= -.26E+01 SK= 0.45E+00
8903246E+03 F= -.18921113E+03 E0= -.18920941E+03  EK= 0.23643E+01 SP     18 T=   677. E= -.18903246E+03 F= -.18921113E+03 E0= -.18920941E+03  EK= 0.23643E+01 SP= -.26E+01 SK= 0.45E+00
8903246E+03 F= -.18921113E+03 E0= -.18920941E+03  EK= 0.23643E+01 SP     18 T=   677. E= -.18903246E+03 F= -.18921113E+03 E0= -.18920941E+03  EK= 0.23643E+01 SP= -.26E+01 SK= 0.45E+00
8903246E+03 F= -.18921113E+03 E0= -.18920941E+03  EK= 0.23643E+01 SP     18 T=   677. E= -.18903246E+03 F= -.18921113E+03 E0= -.18920941E+03  EK= 0.23643E+01 SP= -.26E+01 SK= 0.45E+00
8903246E+03 F= -.18921113E+03 E0= -.18920941E+03  EK= 0.23643E+01 SP= -.26E+01 SK= 0.45E+00
8903246E+03 F= -.18921113E+03 E0= -.18920941E+03  EK= 0.23643E+01 SP     18 T=   677. E= -.18903246E+03 F= -.18921113E+03 E0= -.18920941E+03  EK= 0.23643E+01 SP     18 T=   677. E= -.18903246E+03 F= -.18921113E+03 E0= -.18920941E+03  EK= 0.23643E+01 SP= -.26E+01 SK= 0.45E+00
8903246E+03 F= -.18921113E+03 E0= -.18920941E+03  EK= 0.23643E+01 SP     18 T=   677. E= -.18903246E+03 F= -.18921113E+03 E0= -.18920941E+03  EK= 0.23643E+01 SP= -.26E+01 SK= 0.45E+00
8903246E+03 F= -.18921113E+03 E0= -.18920941E+03  EK= 0.23643E+01 SP     18 T=   677. E= -.18903246E+03 F= -.18921113E+03 E0= -.18920941E+03  EK= 0.23643E+01 SP     18 T=   677. E= -.18903246E+03 F= -.18921113E+03 E0= -.18920941E+03  EK= 0.23643E+01 SP= -.26E+01 SK= 0.45E+00
8903246E+03 F= -.18921113E+03 E0= -.18920941E+03  EK= 0.23643E+01 SP     18 T=   677. E= -.18903246E+03 F= -.18921113E+03 E0= -.18920941E+03  EK= 0.23643E+01 SP     18 T=   677. E= -.18903246E+03 F= -.18921113E+03 E0= -.18920941E+03  EK= 0.23643E+01 SP     18 T=   677. E= -.18903246E+03 F= -.18921113E+03 E0= -.18920941E+03  EK= 0.23643E+01 SP= -.26E+01 SK= 0.45E+00
8903246E+03 F= -.18921113E+03 E0= -.18920941E+03  EK= 0.23643E+01 SP     18 T=   677. E= -.18903246E+03 F= -.18921113E+03 E0= -.18920941E+03  EK= 0.23643E+01 SP     18 T=   677. E= -.18903246E+03 F= -.18921113E+03 E0= -.18920941E+03  EK= 0.23643E+01 SP     18 T=   677. E= -.18903246E+03 F= -.18921113E+03 E0= -.18920941E+03  EK= 0.23643E+01 SP     18 T=   677. E= -.18903246E+03 F= -.18921113E+03 E0= -.18920941E+03  EK= 0.23643E+01 SP= -.26E+01 SK= 0.45E+00
8903246E+03 F= -.18921113E+03 E0= -.18920941E+03  EK= 0.23643E+01 SP= -.26E+01 SK= 0.45E+00
8903246E+03 F= -.18921113E+03 E0= -.18920941E+03  EK= 0.23643E+01 SP     18 T=   677. E= -.18903246E+03 F= -.18921113E+03 E0= -.18920941E+03  EK= 0.23643E+01 SP= -.26E+01 SK= 0.45E+00
-0.189211125965E+03   -0.11643E-04   -0.10445E-04   120   0.102E-01
     18 T=   677. E= -.18903246E+03 F= -.18921113E+03 E0= -.18920941E+03  EK= 0.23643E+01 SP     18 T= DAV:   7    -0.189211114322E+03    0.17411E-03   -0.30039E-04   144   0.198E-01       18 T=  DAV:   8    -0.189211125965E+03   -0.11643E-04   -0.10445E-04   120   0.102E-01
     18 T=   677. E= -.18903246E+03 F= -.18921113E+03 E0= -.18920941E+03  EK= 0.23643E+01 SP= -.26E+01 SK= 0.45E+00
-0.189211125965E+03   -0.11643E-04   -0.10445E-04   120   0.102E-01
     18 T=   677. E= -.18903246E+03 F= -.18921113E+03 E0= -.18920941E+03  EK= 0.23643E+01 SP= -.26E+01 SK= 0.45E+00
-0.189211125965E+03   -0.11643E-04   -0.10445E-04   120   0.102E-01      18 T=   677. E= -.18903246E+03 F= -.18921113E+03 E0= -.18920941E+03  EK= 0.23643E+01 SP= -.26E+01 DAV:   7    -0.189142878997E+03    0.82252E-04   -0.13125E-04   128   0.133E-01
     19 T=   750. E= -.18903560E+03 F= -.18914288E+03 E0= -.18914129E+03  EK= 0.26159E+01 SP= -.28E+01 SK= 0.26E+00
8903560E+03 F= -.18914288E+03 E0= -.18914129E+03  EK= 0.26159E+01 SP=     19 T=   750. E= -.18903560E+03 F= -.18914288E+03 E0= -.18914129E+03  EK= 0.26159E+01 SP     19 T=   750. E= -.18903560E+03 F= -.18914288E+03 E0= -.18914129E+03  EK= 0.26159E+01 SP     19 T=   750. E= -.18903560E+03 F= -.18914288E+03 E0= -.18914129E+03  EK= 0.26159E+01 SP= -.28E+01 SK= 0.26E+00
8903560E+03 F= -.18914288E+03 E0= -.18914129E+03  EK= 0.26159E+01 SP     19 T=   750. E= -.18903560E+03 F= -.18914288E+03 E0= -.18914129E+03  EK= 0.26159E+01 SP     19 T=   750. E= -.18903560E+03 F= -.18914288E+03 E0= -.18914129E+03  EK= 0.26159E+01 SP     19 T=   750. E= -.18903560E+03 F= -.18914288E+03 E0= -.18914129E+03  EK= 0.26159E+01 SP     19 T=   750. E= -.18903560E+03 F= -.18914288E+03 E0= -.18914129E+03  EK= 0.26159E+01 SP     19 T=   750. E= -.18903560E+03 F= -.18914288E+03 E0= -.18914129E+03  EK= 0.26159E+01 SP     19 T=   750. E= -.18903560E+03 F= -.18914288E+03 E0= -.18914129E+03  EK= 0.26159E+01 SP     19 T=   750. E= -.18903560E+03 F= -.18914288E+03 E0= -.18914129E+03  EK= 0.26159E+01 SP     19 T=   750. E= -.18903560E+03 F= -.18914288E+03 E0= -.18914129E+03  EK= 0.26159E+01 SP     19 T=   750. E= -.18903560E+03 F= -.18914288E+03 E0= -.18914129E+03  EK= 0.26159E+01 SP= -.28E+01 SK= 0.26E+00
8903560E+03 F= -.18914288E+03 E0= -.18914129E+03  EK= 0.26159E+01 SP     19 T=   750. E= -.18903560E+03 F= -.18914288E+03 E0= -.18914129E+03  EK= 0.26159E+01 SP= -.28E+01 SK= 0.26E+00
8903560E+03 F= -.18914288E+03 E0= -.18914129E+03  EK= 0.26159E+01 SP     19 T=   750. E= -.18903560E+03 F= -.18914288E+03 E0= -.18914129E+03  EK= 0.26159E+01 SP     19 T=   750. E= -.18903560E+03 F= -.18914288E+03 E0= -.18914129E+03  EK= 0.26159E+01 SP= -.28E+01 SK= 0.26E+00
8903560E+03 F= -.18914288E+03 E0= -.18914129E+03  EK= 0.26159E+01 SP     19 T=   750. E= -.18903560E+03 F= -.18914288E+03 E0= -.18914129E+03  EK= 0.26159E+01 SP     19 T=   750. E= -.18903560E+03 F= -.18914288E+03 E0= -.18914129E+03  EK= 0.26159E+01 SP     19 T=   750. E= -.18903560E+03 F= -.18914288E+03 E0= -.18914129E+03  EK= 0.26159E+01 SP= -.28E+01 SK= 0.26E+00
8903560E+03 F= -.18914288E+03 E0= -.18914129E+03  EK= 0.26159E+01 SP     19 T=   750. E= -.18903560E+03 F= -.18914288E+03 E0= -.18914129E+03  EK= 0.26159E+01 SP= -.28E+01 SK= 0.26E+00
8903560E+03 F= -.18914288E+03 E0= -.18914129E+03  EK= 0.26159E+01 SP     19 T=   750. E= -.18903560E+03 F= -.18914288E+03 E0= -.18914129E+03  EK= 0.26159E+01 SP     19 T=   750. E= -.18903560E+03 F= -.18914288E+03 E0= -.18914129E+03  EK= 0.26159E+01 SP     19 T=   750. E= -.18903560E+03 F= -.18914288E+03 E0= -.18914129E+03  EK= 0.26159E+01 SP     19 T=   750. E= -.18903560E+03 F= -.18914288E+03 E0= -.18914129E+03  EK= 0.26159E+01 SP     19 T=   750. E= -.18903560E+03 F= -.18914288E+03 E0= -.18914129E+03  EK= 0.26159E+01 SP= -.28E+01 SK= 0.26E+00
-0.189142878997E+03    0.82252E-04   -0.13125E-04   128   0.133E-01
     19 T=   750. E= -.18903560E+03 F= -.18914288E+03 E0= -.18914129E+03  EK= 0.26159E+01 SP     19 T=   750. E= -.18903560E+03 F= -.18914288E+03 E0= -.18914129E+03  EK= 0.26159E+01 SP     19 T=   750. E= -.18903560E+03 F= -.18914288E+03 E0= -.18914129E+03  EK= 0.26159E+01 SP= -.28E+01 SK= 0.26E+00
8903560E+03 F= -.18914288E+03 E0= -.18914129E+03  EK= 0.26159E+01 SP= -.28E+01 SK= 0.26E+00
-0.189142878997E+03    0.82252E-04   -0.13125E-04   128   0.133E-01
     19 T=   750. E= -.18903560E+03 F= -.18914288E+03 E0= -.18914129E+03  EK= 0.26159E+01 SP= -.28E+01 SK= 0.26E+00
[...]
    135 T=   136. E= -.18903572E+03 F= -.18903106E+03 E0= -.18903081E+03  EK= 0.47354E+00 SP= -.54E+00 SK= 0.62E-01
-0.188968237355E+03   -0.53714E-04   -0.13763E-04   120   0.107E-01
    134 T=   112. E= -.18903578E+03 F= -.18896824E+03 E0= -.18896797E+03  EK= 0.39059E+00 SP    134 T=   112. E= -.18903578E+03 F= -.18896824E+03 E0= -.18896797E+03  EK= 0.39059E+00 SP= -.49E+00 SK= 0.33E-01
8903572E+03 F= -.18903106E+03 E0= -.18903081E+03  EK= 0.47354E+00 SP    134 T=   112. E= -.18903578E+03 F= -.18896824E+03 E0= -.18896797E+03  EK= 0.39059E+00 SP= -.49E+00 SDAV:   6    -0.188968237355E+03   -0.53714E-04   -0.13763E-04   120   0.107E-01
    134 T=   112. E= -.18903578E+03 F= -.18896824E+03 E0= -.18896797E+03  EK= 0.39059E+00 SP= -.49E+00 SK= 0.33E-01
8903572E+03 F= -.18903106E+03 E0= -.18903081E+03  EK= 0.47354E+00 SP= -.54E+00 SK= 0.62E-01
8903578E+03 F= -.18896824E+03 E0= -.18896797E+03  EK= 0.39059E+00 SP= -.49E+00 SK= 0.33E-01
0.189031087091E+03    0.10357E-03   -0.22774E-04   152   0.155E-01    133 T=    DAV:   6    -0.189031060352E+03    0.26739E-04   -0.99598E-05   120   0.902E-02
    135 T=   136. E= -.18903572E+03 F= -.18903106E+03 E0= -.18903081E+03  EK= 0.47354E+00 SP= -.54E+00 SK= 0.62E-01
0.188918263497E+03    0.15801E-03   -0.32338E-04   168   0.211E-01      135 T=  DAV:   6    -0.188918280583E+03   -0.17086E-04   -0.20142E-04   152   0.992E-02
    130 T=    95. E= -.18903609E+03 F= -.18891828E+03 E0= -.18891789E+03  EK= 0.33156E+00 SP    135 T=  DAV:   6    -0.188968237355E+03   -0.53714E-04   -0.13763E-04   120   0.107E-01
    134 T=   112. E= -.18903578E+03 F= -.18896824E+03 E0= -.18896797E+03  EK= 0.39059E+00 SP= -.49E+00 SK= 0.33E-01
8903600E+03 F= -.18889849E+03 E0= -.18889814E+03  EK= 0.30553E+00 SP    131 T=    88. E= -.18903600E+03 F= -.18889849E+03 E0= -.18889814E+03  EK= 0.30553E+00 SP= -.45E+00 SK= 0.28E-02
-0.188898490707E+03   -0.84116E-05   -0.16462E-04   128   0.859E-02
    131 T=    88. E= -.18903600E+03 F= -.18889849E+03 E0= -.18889814E+03  EK= 0.30553E+00 SP= -.45E+00 SK= 0.28E-02
8903572E+03 F= -.18903106E+03 E0= -.18903081E+03  EK= 0.47354E+00 SP    134 T=   112. E= -.18903578E+03 F= -.18896824E+03 E0= -.18896797E+03  EK= 0.39059E+00 SP    131 T=    88. E= -.18903600E+03 F= -.18889849E+03 E0= -.18889814E+03  EK= 0.30553E+00 SP= -.45E+00 SK= 0.28E-02
8903578E+03 F= -.18896824E+03 E0= -.18896797E+03  EK= 0.39059E+00 SP= -.49E+00 SDAV:   6    -0.188968237355E+03   -0.53714E-04   -0.13763E-04   120   0.107E-01
    134 T=   112. E= -.18903578E+03 F= -.18896824E+03 E0= -.18896797E+03  EK= 0.39059E+00 SP= -.49E+00 SK= 0.33E-01
0.189031087091E+03    0.10357E-03   -0.22774E-04   152   0.155E-01    132 T=    88. E= -.18903604E+03 F= -.18889996E+03 E0= -.18889964E+03  EK= 0.30613E+00 SP      135 T=   136. E= -.18903572E+03 F= -.18903106E+03 E0= -.18903081E+03  EK= 0.47354E+00 SP= -.54E+00 SDAV:   6    -0.188898490707E+03   -0.84116E-05   -0.16462E-04   128   0.859E-0      131 T=    88. E= -.18903600E+03 F= -.18889849E+03 E0= -.18889814E+03  EK= 0.30553E+00 SP= -.45E+00 SK= 0.28E-02
03589E+03 F= -.18892347E+03 E0= -.18892318E+03  EK= 0.33444E+00 SP= -.46E+00 SK= 0.11E-01
8903604E+03 F= -.18889996E+03 E0= -.18889964E+03  EK= 0.30613E+00 SP= -.44E+00 SK= 0.78E-03
8903589E+03 F= -.18892347E+03 E0= -.18892318E+03  EK= 0.33444E+00 SP    133 T=    DAV:   6    -0.188968237355E+03   -0.53714E-04   -0.13763E-04   120   0.107E-01
    134 T=   112. E= -.18903578E+03 F= -.18896824E+03 E0= -.18896797E+03  EK= 0.39059E+00 SP= -.49E+00 SK= 0.33E-01
03589E+03 F= -.18892347E+03 E0= -.18892318E+03  EK= 0.33444E+00 SP    133 T=    96. E= -.18903589E+03 F= -.18892347E+03 E0= -.18892318E+03  EK= 0.33444E+00 SP    132 T=    88. E= -.18903604E+03 F= -.18889996E+03 E0= -.18889964E+03  EK= 0.30613E+00 SP= -.44E+00 SK= 0.78E-03
  -0.189031060352E+03    0.26739E-04   -0.99598E-05   120   0.902E-02
    135 T=   136. E= -.18903572E+03 F= -.18903106E+03 E0= -.18903081E+03  EK= 0.47354E+00 SP= -.54E+00 SK= 0.62E-01
0.189031087091E+03    0.10357E-03   -0.22774E-04   152   0.155E-01    0.739E-02
DAV:   6    -0.189031060352E+03    0.26739E-04   -0.99598E-05   120   0.902E-02
    135 T=   136. E= -.18903572E+03 F= -.18903106E+03 E0= -.18903081E+03  EK= 0.47354E+00 SP= -.54E+00 SK= 0.62E-01
-0.189031060352E+03    0.26739E-04   -0.99598E-05   120   0.902E-02
    135 T=   136. E= -.18903572E+03 F= -.18903106E+03 E0= -.18903081E+03  EK= 0.47354E+00 SP= -.54E+00 SK= 0.62E-01
0.188968183641E+03    0.13678E-03   -0.26712E-04   160   0.164E-01    136 T=   1DAV:   6    -0.188968237355E+03   -0.53714E-04   -0.13763E-04   120   0.107E-0      134 T=   112. E= -.18903578E+03 F= -.18896824E+03 E0= -.18896797E+03  EK= 0.39059E+00 SP= -.49E+00 SK= 0.33E-01
03580E+03 F= -.18910666E+03 E0= -.18910642E+03  EK= 0.58065E+00 SP= -.60E+00 SKDAV:   5    -0.189031087091E+03    0.10357E-03   -0.22774E-04   152   0.155E-01    0.739E-02DDAV:   6    -0.189031060352E+03    0.26739E-04   -0.99598E-05   120   0.902E-02
    135 T=   136. E= -.18903572E+03 F= -.18903106E+03 E0= -.18903081E+03  EK= 0.47354E+00 SP= -.54E+00 SK= 0.62E-01
8903572E+03 F= -.18903106E+03 E0= -.18903081E+03  EK= 0.47354E+00 SP    135 T=   136. E= -.18903572E+03 F= -.18903106E+03 E0= -.18903081E+03  EK= 0.47354E+00 SP= -.54E+00 SK= 0.62E-01
03580E+03 F= -.18910666E+03 E0= -.18910642E+03  EK= 0.58065E+00 SP= -.60E+00 SKDAV:   5    -0.189031087091E+03    0.10357E-03   -0.22774E-04   152   0.155E-01    133 T=    DAV:   6    -0.189031060352E+03    0.26739E-04   -0.99598E-05   120   0.902E-02
    135 T=   136. E= -.18903572E+03 F= -.18903106E+03 E0= -.18903081E+03  EK= 0.47354E+00 SP= -.54E+00 SK= 0.62E-01
-0.188898490707E+03   -0.84116E-05   -0.16462E-04   128   0.859E-02
    131 T=    88. E= -.18903600E+03 F= -.18889849E+03 E0= -.18889814E+03  EK= 0.30553E+00 SP= -.45E+00 SK= 0.28E-02
03604E+03 F= -.18889996E+03 E0= -.18889964E+03  EK= 0.30613E+00 SP    133 T=    96. E= -.18903589E+03 F= -.18892347E+03 E0= -.18892318E+03  EK= 0.33444E+00 SP= -.46E+00 SK= 0.11E-01
 -0.188968183641E+03    0.13678E-03   -0.26712E-04   160   0.164E-01    132 T=    DAV:   6    -0.188968237355E+03   -0.53714E-04   -0.13763E-04   120   0.107E-01
    134 T=   112. E= -.18903578E+03 F= -.18896824E+03 E0= -.18896797E+03  EK= 0.39059E+00 SP= -.49E+00 SK= 0.33E-01
0.188968183641E+03    0.13678E-03   -0.26712E-04   160   0.164E-01    136 T=   1DAV:   6    -0.188968237355E+03   -0.53714E-04   -0.13763E-04   120   0.107E-01
    134 T=   112. E= -.18903578E+03 F= -.18896824E+03 E0= -.18896797E+03  EK= 0.39059E+00 SP= -.49E+00 SK= 0.33E-01
-0.189031060352E+03    0.26739E-04   -0.99598E-05   120   0.902E-0      135 T=   136. E= -.18903572E+03 F= -.18903106E+03 E0= -.18903081E+03  EK= 0.47354E+00 SP= -.54E+00 SK= 0.62E-01
03604E+03 F= -.18889996E+03 E0= -.18889964E+03  EK= 0.30613E+00 SP= -.44E+00 SKDAV:   5    -0.188968183641E+03    0.13678E-03   -0.26712E-04   160   0.164E-01    0.385E-02
DAV:   6    -0.188968237355E+03   -0.53714E-04   -0.13763E-04   120   0.107E-01
    134 T=   112. E= -.18903578E+03 F= -.18896824E+03 E0= -.18896797E+03  EK= 0.39059E+00 SP= -.49E+00 SK= 0.33E-01
-0.189031060352E+03    0.26739E-04   -0.99598E-05   120   0.902E-02
    135 T=   136. E= -.18903572E+03 F= -.18903106E+03 E0= -.18903081E+03  EK= 0.47354E+00 SP    135 T=   136. E= -.18903572E+03 F= -.18903106E+03 E0= -.18903081E+03  EK= 0.47354E+00 SP    134 T=   112. E= -.18903578E+03 F= -.18896824E+03 E0= -.18896797E+03  EK= 0.39059E+00       135 T=   136. E= -.18903572E+03 F= -.18903106E+03 E0= -.18903081E+03  EK= 0.47354E+00 S     134 T=   112. E= -.18903578E+03 F= -.18896824E+03 E0= -.18896797E+03  EK= 0.39059E+00 SP= -.49E+00 SK= 0.33E-01
03589E+03 F= -.18892347E+03 E0= -.18892318E+03  EK= 0.33444E+00 SP= -.46E+00 SK= 0.11E-01
 -0.189187861278E+03   -0.39136E-04   -0.47869E-04   176   0.109E-01     137 T=   203. E= -.18903592E+03 F= -.18918786E+03 E0= -.18918763E+03  EK= 0.70745E+00 SP= -.68E+00 SK= 0.12E+00
-0.189031087091E+03    0.10357E-03   -0.22774E-04   152   0.155E-01    0.739E-02DDAV:   6    -0.189031060352E+03    0.26739E-04   -0.99598E-05   120   0.902E-0      135 T=   136. E= -.18903572E+03 F= -.18903106E+03 E0= -.18903081E+03  EK= 0.47354E+00 SP    134 T=   112. E= -.18903578E+03 F= -.18896824E+03 E0= -.18896797E+03  EK= 0.39059E+00 SP= -.49E+00 SK= 0.33E-01
903592E+03 F= -.18918786E+03 E0= -.18918763E+03  EK= 0.70745E+00 SP    137 T=   203. E= -.18903592E+03 F= -.18918786E+03 E0= -.18918763E+03  EK= 0.70745E+00 SP= -.68E+00 SK= 0.12E+00
 -0.188968237355E+03   -0.53714E-04   -0.13763E-04   120   0.107E-01     134 T=   112. E= -.18903578E+03 F= -.18896824E+03 E0= -.18896797E+03  EK= 0.39059E+00 SP= -.49E+00 SK= 0.33E-01
-0.188968237355E+03   -0.53714E-04   -0.13763E-04   120   0.107E-01
    134 T=   112. E= -.18903578E+03 F= -.18896824E+03 E0= -.18896797E+03  EK= 0.39059E+00 SP    134 T=   112. E= -.18903578E+03 F= -.18896824E+03 E0= -.18896797E+03  EK= 0.39059E+00 SP= -.49E+00 SK= 0.33E-01
-0.188968237355E+03   -0.53714E-04   -0.13763E-04   120   0.107E-01
    134 T=   112. E= -.18903578E+03 F= -.18896824E+03 E0= -.18896797E+03  EK= 0.39059E+00 SP= -.49E+00 SK= 0.33E-01
8903578E+03 F= -.18896824E+03 E0= -.18896797E+03  EK= 0.39059E+00 SP= -.49E+00 SK= 0.33E-01
903592E+03 F= -.18918786E+03 E0= -.18918763E+03  EK= 0.70745E+00 S    133 T=    96. E= -.18903589E+03 F= -.18892347E+03 E0= -.18892318E+03  EK= 0.33444E+00 SP= -.46E+00 SK= 0.11E-01
 -0.188968183641E+03    0.13678E-03   -0.26712E-04   160   0.164E-01    0.385E-0DADAV:   6    -0.188968237355E+03   -0.53714E-04   -0.13763E-04   120   0.107E-01
    134 T=   112. E= -.18903578E+03 F= -.18896824E+03 E0= -.18896797E+03  EK= 0.39059E+00 SP    135 T=  DAV:   6    -0.188968237355E+03   -0.53714E-04   -0.13763E-04   120   0.107E-01
    134 T=   112. E= -.18903578E+03 F= -.18896824E+03 E0= -.18896797E+03  EK= 0.39059E+00 SP= -.49E+00 SK= 0.33E-01
0.188968183641E+03    0.13678E-03   -0.26712E-04   160   0.164E-01    0.385E-02
DAV:   6    -0.188968237355E+03   -0.53714E-04   -0.13763E-04   120   0.107E-01
    134 T=   112. E= -.18903578E+03 F= -.18896824E+03 E0= -.18896797E+03  EK= 0.39059E+00 SP= -.49E+00 SK= 0.33E-01
03589E+03 F= -.18892347E+03 E0= -.18892318E+03  EK= 0.33444E+00 SP= -.46E+00 SK= 0.11E-01
 -0.189031087091E+03    0.10357E-03   -0.22774E-04   152   0.155E-01    0.739E-02DDAV:   6    -0.189031060352E+03    0.26739E-04   -0.99598E-05   120   0.902E-02
    135 T=   136. E= -.18903572E+03 F= -.18903106E+03 E0= -.18903081E+03  EK= 0.47354E+00 SP= -.54E+00 SK= 0.62E-01
8903578E+03 F= -.18896824E+03 E0= -.18896797E+03  EK= 0.39059E+00 SP= -.49E+00 SK= 0.33E-01
8903572E+03 F= -.18903106E+03 E0= -.18903081E+03  EK= 0.47354E+00 SP= -.54E+00 SK= 0.62E-01
-0.189031060352E+03    0.26739E-04   -0.99598E-05   120   0.902E-0      135 T=   136. E= -.18903572E+03 F= -.18903106E+03 E0= -.18903081E+03  EK= 0.47354E+00 SP    134 T= DAV:   5    -0.188968183641E+03    0.13678E-03   -0.26712E-04   160   0.164E-01    0.385E-02
DAV:   6    -0.188968237355E+03   -0.53714E-04   -0.13763E-04   120   0.107E-01
    134 T=   112. E= -.18903578E+03 F= -.18896824E+03 E0= -.18896797E+03  EK= 0.39059E+00 SP= -.49E+00 SK= 0.33E-01
0.189187861278E+03   -0.39136E-04   -0.47869E-04   176   0.109E-01
    137 T=   203. E= -.18903592E+03 F= -.18918786E+03 E0= -.18918763E+03  EK= 0.70745E+00 SP= -.68E+00 SKDAV:   6    -0.189031060352E+03    0.26739E-04   -0.99598E-05   120   0.902E-02
    135 T=   136. E= -.18903572E+03 F= -.18903106E+03 E0= -.18903081E+03  EK= 0.47354E+00 SP= -.54E+00 SK= 0.62E-01
03580E+03 F= -.18910666E+03 E0= -.18910642E+03  EK= 0.58065E+00 SP= -.60E+00 SK= 0.93E-01
-0.189267360036E+03    0.32867E-03   -0.40857E-03   240   0.435E-01    0.188E-01
AV:   4    -0.188968320426E+03    0.35094E-03   -0.82531E-04   200   0.366E-01    0.118E-01DDAV:   5    -0.188968183641E+03    0.13678E-03   -0.26712E-04   160   0.164E-01    133 T=    96. E= -.18903589E+03 F= -.18892347E+03 E0= -.18892318E+03  EK= 0.33444E+00 SP=     134 T=   112. E= -.18903578E+03 F= -.18896824E+03 E0= -.18896797E+03  EK= 0.39059E+00 SP= -.49E+00 SK= 0.33E-01
0.188968183641E+03    0.13678E-03   -0.26712E-04   160   0.164E-01      135 T=  DAV:   6    -0.188968237355E+03   -0.53714E-04   -0.13763E-04   120   0.107E-01
    134 T=   112. E= -.18903578E+03 F= -.18896824E+03 E0= -.18896797E+03  EK= 0.39059E+00 SP= -.49E+00 SK= 0.33E-01
.189031190662E+03    0.17110E-03   -0.99437E-04   200   0.316E-01    0.937E-02DDAV:   5    -0.189031087091E+03    0.10357E-03   -0.22774E-04   152   0.155E-01    0.739E-02
DAV:   6    -0.189031060352E+03    0.26739E-04   -0.99598E-05   120   0.902E-02
    135 T=   136. E= -.18903572E+03 F= -.18903106E+03 E0= -.18903081E+03  EK= 0.47354E+00 SP= -.54E+00 SK= 0.62E-01
-0.188968237355E+03   -0.53714E-04   -0.13763E-04   120   0.107E-01
    134 T=   112. E= -.18903578E+03 F= -.18896824E+03 E0= -.18896797E+03  EK= 0.39059E+00 SP= -.49E+00 SK= 0.33E-01
0.189031087091E+03    0.10357E-03   -0.22774E-04   152   0.155E-01    0.739E-02DDAV:   6    -0.189031060352E+03    0.26739E-04   -0.99598E-05   120   0.902E-02     135 T=   136. E= -.18903572E+03 F= -.18903106E+03 E0= -.18903081E+03  EK= 0.47354E+00 SP= -.54E+00 SK= 0.62E-01
903592E+03 F= -.18918786E+03 E0= -.18918763E+03  EK= 0.70745E+00 SP= -.68E+00 SK= 0.12E+00
-0.188968183641E+03    0.13678E-03   -0.26712E-04   160   0.164E-01    0.385E-02
DAV:   6    -0.188968237355E+03   -0.53714E-04   -0.13763E-04   120   0.107E-01
    134 T=   112. E= -.18903578E+03 F= -.18896824E+03 E0= -.18896797E+03  EK= 0.39059E+00 SP= -.49E+00 SK= 0.33E-01
8903572E+03 F= -.18903106E+03 E0= -.18903081E+03  EK= 0.47354E+00 SP= -.54E+00 SK= 0.62E-01
0.189031087091E+03    0.10357E-03   -0.22774E-04   152   0.155E-01      135 T=  DAV:   6    -0.189031060352E+03    0.26739E-04   -0.99598E-05   120   0.902E-02
    135 T=   136. E= -.18903572E+03 F= -.18903106E+03 E0= -.18903081E+03  EK= 0.47354E+00 SP= -.54E+00 SK= 0.62E-01
.188968320426E+03    0.35094E-03   -0.82531E-04   200   0.366E-01    0.118E-01
DAV:   5    -0.188968183641E+03    0.13678E-03   -0.26712E-04   160   0.164E-01    0.385E-02
DAV:   6    -0.188968237355E+03   -0.53714E-04   -0.13763E-04   120   0.107E-01
    134 T=   112. E= -.18903578E+03 F= -.18896824E+03 E0= -.18896797E+03  EK= 0.39059E+00 SP= -.49E+00 SK= 0.33E-01
-0.188968237355E+03   -0.53714E-04   -0.13763E-04   120   0.107E-01
    134 T=   112. E= -.18903578E+03 F= -.18896824E+03 E0= -.18896797E+03  EK= 0.39059E+00 SP= -.49E+00 SK= 0.33E-01
0.189031087091E+03    0.10357E-03   -0.22774E-04   152   0.155E-01    0.739E-02
DAV:   6    -0.189031060352E+03    0.26739E-04   -0.99598E-05   120   0.902E-02
    135 T=   136. E= -.18903572E+03 F= -.18903106E+03 E0= -.18903081E+03  EK= 0.47354E+00 SP= -.54E+00 SK= 0.62E-01
8903572E+03 F= -.18903106E+03 E0= -.18903081E+03  EK= 0.47354E+00     136 T=   166. E= -.18903580E+03 F= -.18910666E+03 E0= -.18910642E+03  EK= 0.58065E+00 SP      134 T=   112. E= -.18903578E+03 F= -.18896824E+03 E0= -.18896797E+03  EK= 0.39059E+00 SP    135 T=   136. E= -.18903572E+03 F= -.18903106E+03 E0= -.18903081E+03  EK= 0.47354E+00 SP= -.54E+00 SK= 0.62E-01
-0.188968237355E+03   -0.53714E-04   -0.13763E-04   120   0.107E-01
    134 T=   112. E= -.18903578E+03 F= -.18896824E+03 E0= -.18896797E+03  EK= 0.39059E+00 SP    135 T=   136. E= -.18903572E+03 F= -.18903106E+03 E0= -.18903081E+03  EK= 0.47354E+00 SP= -.54E+00 SK= 0.62E-01
188968671370E+03    0.20521E-02   -0.29558E-03   272   0.770E-01      136 T=  DAV:   4    -0.188968320426E+03    0.35094E-03   -0.82531E-04   200   0.366E-01    0.118E-01
DAV:   5    -0.188968183641E+03    0.13678E-03   -0.26712E-04   160   0.164E-01    0.385E-02
DAV:   6    -0.188968237355E+03   -0.53714E-04   -0.13763E-04   120   0.107E-01
    134 T=   112. E= -.18903578E+03 F= -.18896824E+03 E0= -.18896797E+03  EK= 0.39059E+00 SP= -.49E+00 SK= 0.33E-01
0.189031087091E+03    0.10357E-03   -0.22774E-04   152   0.155E-01    0.739E-02
DAV:   6    -0.189031060352E+03    0.26739E-04   -0.99598E-05   120   0.902E-02
    135 T=   136. E= -.18903572E+03 F= -.18903106E+03 E0= -.18903081E+03  EK= 0.47354E+00 SP= -.54E+00 SK= 0.62E-01
.189031190662E+03    0.17110E-03   -0.99437E-04   200   0.316E-01       135 T= DAV:   5    -0.189031087091E+03    0.10357E-03   -0.22774E-04   152   0.155E-01      134 T=  DAV:   6    -0.189031060352E+03    0.26739E-04   -0.99598E-05   120   0.902E-02
    135 T=   136. E= -.18903572E+03 F= -.18903106E+03 E0= -.18903081E+03  EK= 0.47354E+00 SP= -.54E+00 SK= 0.62E-01
03580E+03 F= -.18910666E+03 E0= -.18910642E+03  EK= 0.58065E+00 SP= -.60E+00 SK= 0.93E-01
-0.189187822142E+03    0.99053E-03   -0.46437E-04   160   0.350E-01    0.753E-02DDAV:   5    -0.189187861278E+03   -0.39136E-04   -0.47869E-04   176   0.109E-01     137 T=   203. E= -.18903592E+03 F= -.18918786E+03 E0= -.18918763E+03  EK= 0.70745E+00 SP= -.68E+00 SK= 0.12E+00
903580E+03 F= -.18910666E+03 E0= -.18910642E+03  EK= 0.58065E+00 SP= -.60E+00 SK= 0.93E-01
-0.189031190662E+03    0.17110E-03   -0.99437E-04   200   0.316E-01    0.937E-02DDAV:   5    -0.189031087091E+03    0.10357E-03   -0.22774E-04   152   0.155E-01    136 T=   1DAV:   6    -0.189031060352E+03    0.26739E-04   -0.99598E-05   120   0.902E-02
    135 T=   136. E= -.18903572E+03 F= -.18903106E+03 E0= -.18903081E+03  EK= 0.47354E+00 SP= -.54E+00 SK= 0.62E-01
0.189031087091E+03    0.10357E-03   -0.22774E-04   152   0.155E-01    0.739E-02
DAV:   6    -0.189031060352E+03    0.26739E-04   -0.99598E-05   120   0.902E-02
    135 T=   136. E= -.18903572E+03 F= -.18903106E+03 E0= -.18903081E+03  EK= 0.47354E+00 SP= -.54E+00 SK= 0.62E-01
.189106659165E+03    0.49912E-04   -0.28196E-04   168   0.173E-01
    136 T=   166. E= -.18903580E+03 F= -.18910666E+03 E0= -.18910642E+03  EK= 0.58065E+00 SP= -.60E+00 SK= 0.93E-01
-0.189106659165E+03    0.49912E-04   -0.28196E-04   168   0.173E-01
    136 T=   166. E= -.18903580E+03 F= -.18910666E+03 E0= -.18910642E+03  EK= 0.58065E+00 SP=     135 T=   136. E= -.18903572E+03 F= -.18903106E+03 E0= -.18903081E+03  EK= 0.47354E+00 SP= -.54E+00 SK= 0.62E-01
189039231868E+03   -0.85520E-02   -0.11036E-02   264   0.125E+00    0.124E+00
DAV:   3    -0.189031361759E+03    0.78701E-02   -0.46869E-03   256   0.105E+00    0.235E-01
DAV:   4    -0.189031190662E+03    0.17110E-03   -0.99437E-04   200   0.316E-01    0.937E-02
DAV:   5    -0.189031087091E+03    0.10357E-03   -0.22774E-04   152   0.155E-01    0.739E-02
DAV:   6    -0.189031060352E+03    0.26739E-04   -0.99598E-05   120   0.902E-02
    135 T=   136. E= -.18903572E+03 F= -.18903106E+03 E0= -.18903081E+03  EK= 0.47354E+00 SP= -.54E+00 SK= 0.62E-01
.189106659165E+03    0.49912E-04   -0.28196E-04   168   0.173E-01
    136 T=   166. E= -.18903580E+03 F= -.18910666E+03 E0= -.18910642E+03  EK= 0.58065E+00 SP= -.60E+00 SK= 0.93E-01
0.189106709078E+03    0.26647E-02   -0.15337E-03   224   0.635E-01    0.136E-0DDDAV:   4    -0.189106659165E+03    0.49912E-04   -0.28196E-04   168   0.173E-01
    136 T=   166. E= -.18903580E+03 F= -.18910666E+03 E0= -.18910642E+03  EK= 0.58065E+00 SP= -.60E+00 SDAV:   4    -0.189106659165E+03    0.49912E-04   -0.28196E-04   168   0.173E-01
    136 T=   166. E= -.18903580E+03 F= -.18910666E+03 E0= -.18910642E+03  EK= 0.58065E+00 SP= -.60E+00 SK= 0.93E-01
0.189106709078E+03    0.26647E-02   -0.15337E-03   224   0.635E-01    0.136E-01DDAV:   4    -0.189106659165E+03    0.49912E-04   -0.28196E-04   168   0.173E-01
    136 T=   166. E= -.18903580E+03 F= -.18910666E+03 E0= -.18910642E+03  EK= 0.58065E+00 SP    136 T=   166. E= -.18903580E+03 F= -.18910666E+03 E0= -.18910642E+03  EK= 0.58065E+00 SP= -.60E+00 SKDAV:   3    -0.189188812673E+03   -0.60120E-03   -0.15854E-03   264   0.546E-01    0.430E-01
   rms(c)
DAV:   1    -0.189187267831E+03   -0.80559E-01   -0.36832E-03   312   0.155E+00    0.167E-01
DAV:   2    -0.189188211471E+03   -0.94364E-03   -0.11454E-02   280   0.499E-01    0.241E-01
DAV:   3    -0.189188812673E+03   -0.60120E-03   -0.15854E-03   264   0.546E-01    0.430E-01
