 vasp.6.3.2 27Jun22 (build May 08 2025 20:43:02) complex                        
  
 executed on             LinuxIFC date 2025.08.22  00:44:18
 running on    1 total cores
 distrk:  each k-point on    1 cores,    1 groups
 distr:  one band on NCORE=   1 cores,    1 groups


--------------------------------------------------------------------------------------------------------


 INCAR:
   SYSTEM = MD-OXC
   PREC = Normal
   ISMEAR = 0
   SIGMA = 0.1
   IBRION = 0
   NSW = 500
   POTIM = 1.0
   TEBEG = 300.0
   TEEND = 300.0
   SMASS = 0
   NBLOCK = 1
   ISYM = 0
   LCHARG = .FALSE.
   LWAVE = .FALSE.
   MDALGO = 2
   ANDERSEN_PROB = 0.1

 POTCAR:   PAW_PBE O 08Apr2002                    
 POTCAR:    PAW_PBE P 17Jan2003                   
 POTCAR:   PAW_PBE Li_sv 23Jan2001                
 POTCAR:   PAW_PBE Fe 06Sep2000                   
 POTCAR:   PAW_PBE O 08Apr2002                    
   VRHFIN =O: s2p4                                                                                  
   LEXCH  = PE                                                                                      
   EATOM  =   432.3788 eV,   31.7789 Ry                                                             
                                                                                                    
   TITEL  = PAW_PBE O 08Apr2002                                                                     
   LULTRA =        F    use ultrasoft PP ?                                                          
   IUNSCR =        0    unscreen: 0-lin 1-nonlin 2-no                                               
   RPACOR =     .000    partial core radius                                                         
   POMASS =   16.000; ZVAL   =    6.000    mass and valenz                                          
   RCORE  =    1.520    outmost cutoff radius                                                       
   RWIGS  =    1.550; RWIGS  =     .820    wigner-seitz radius (au A)                               
   ENMAX  =  400.000; ENMIN  =  300.000 eV                                                          
   ICORE  =        2    local potential                                                             
   LCOR   =        T    correct aug charges                                                         
   LPAW   =        T    paw PP                                                                      
   EAUG   =  605.392                                                                                
   DEXC   =     .000                                                                                
   RMAX   =    2.264    core radius for proj-oper                                                   
   RAUG   =    1.300    factor for augmentation sphere                                              
   RDEP   =    1.550    radius for radial grids                                                     
   QCUT   =   -5.520; QGAM   =   11.041    optimization parameters                                  
                                                                                                    
   Description                                                                                      
     l     E      TYP  RCUT    TYP  RCUT                                                            
     0   .000     23  1.200                                                                         
     0  -.700     23  1.200                                                                         
     1   .000     23  1.520                                                                         
     1   .600     23  1.520                                                                         
     2   .000      7  1.500                                                                         
  local pseudopotential read in
  atomic valenz-charges read in
  non local Contribution for L=           0  read in
    real space projection operators read in
  non local Contribution for L=           0  read in
    real space projection operators read in
  non local Contribution for L=           1  read in
    real space projection operators read in
  non local Contribution for L=           1  read in
    real space projection operators read in
    PAW grid and wavefunctions read in
 
   number of l-projection  operators is LMAX  =           4
   number of lm-projection operators is LMMAX =           8
 
 POTCAR:    PAW_PBE P 17Jan2003                   
   VRHFIN =P : s2p3                                                                                 
   LEXCH  = PE                                                                                      
   EATOM  =   176.0430 eV,   12.9388 Ry                                                             
                                                                                                    
   TITEL  = PAW_PBE P 17Jan2003                                                                     
   LULTRA =        F    use ultrasoft PP ?                                                          
   IUNSCR =        1    unscreen: 0-lin 1-nonlin 2-no                                               
   RPACOR =    1.500    partial core radius                                                         
   POMASS =   30.974; ZVAL   =    5.000    mass and valenz                                          
   RCORE  =    1.900    outmost cutoff radius                                                       
   RWIGS  =    2.330; RWIGS  =    1.233    wigner-seitz radius (au A)                               
   ENMAX  =  270.000; ENMIN  =  191.280 eV                                                          
   ICORE  =        2    local potential                                                             
   LCOR   =        T    correct aug charges                                                         
   LPAW   =        T    paw PP                                                                      
   EAUG   =  342.924                                                                                
   DEXC   =    -.002                                                                                
   RMAX   =    2.887    core radius for proj-oper                                                   
   RAUG   =    1.300    factor for augmentation sphere                                              
   RDEP   =    1.931    radius for radial grids                                                     
   QCUT   =   -4.330; QGAM   =    8.659    optimization parameters                                  
                                                                                                    
   Description                                                                                      
     l     E      TYP  RCUT    TYP  RCUT                                                            
     0   .000     23  1.900                                                                         
     0   .000     23  1.900                                                                         
     1   .000     23  1.900                                                                         
     1   .000     23  1.900                                                                         
     2   .000     23  1.900                                                                         
  local pseudopotential read in
  partial core-charges read in
  atomic valenz-charges read in
  non local Contribution for L=           0  read in
    real space projection operators read in
  non local Contribution for L=           0  read in
    real space projection operators read in
  non local Contribution for L=           1  read in
    real space projection operators read in
  non local Contribution for L=           1  read in
    real space projection operators read in
    PAW grid and wavefunctions read in
 
   number of l-projection  operators is LMAX  =           4
   number of lm-projection operators is LMMAX =           8
 
 POTCAR:   PAW_PBE Li_sv 23Jan2001                
   VRHFIN =Li: 1s2s2p                                                                               
   LEXCH  = PE                                                                                      
   EATOM  =   202.7858 eV,   14.9043 Ry                                                             
                                                                                                    
   TITEL  = PAW_PBE Li_sv 23Jan2001                                                                 
   LULTRA =        F    use ultrasoft PP ?                                                          
   IUNSCR =        0    unscreen: 0-lin 1-nonlin 2-no                                               
   RPACOR =     .000    partial core radius                                                         
   POMASS =    7.010; ZVAL   =    3.000    mass and valenz                                          
   RCORE  =    2.050    outmost cutoff radius                                                       
   RWIGS  =    2.050; RWIGS  =    1.085    wigner-seitz radius (au A)                               
   ENMAX  =  271.649; ENMIN  =  203.737 eV                                                          
   ICORE  =        2    local potential                                                             
   LCOR   =        T    correct aug charges                                                         
   LPAW   =        T    paw PP                                                                      
   EAUG   =  428.394                                                                                
   RMAX   =    2.797    core radius for proj-oper                                                   
   RAUG   =    1.300    factor for augmentation sphere                                              
   RDEP   =    2.094    radius for radial grids                                                     
   RDEPT  =    1.550    core radius for aug-charge                                                  
   QCUT   =   -4.468; QGAM   =    8.937    optimization parameters                                  
                                                                                                    
   Description                                                                                      
     l     E      TYP  RCUT    TYP  RCUT                                                            
     0   .000     23  1.550                                                                         
     0   .000     23  2.050                                                                         
     0   .000     23  1.550                                                                         
     0   .000     23  2.050                                                                         
     1  -.200     23  2.050                                                                         
     1  1.500     23  2.050                                                                         
     2   .000      7  1.550                                                                         
  local pseudopotential read in
  atomic valenz-charges read in
  non local Contribution for L=           0  read in
    real space projection operators read in
  non local Contribution for L=           0  read in
    real space projection operators read in
  non local Contribution for L=           1  read in
    real space projection operators read in
  non local Contribution for L=           1  read in
    real space projection operators read in
    PAW grid and wavefunctions read in
 
   number of l-projection  operators is LMAX  =           4
   number of lm-projection operators is LMMAX =           8
 
 POTCAR:   PAW_PBE Fe 06Sep2000                   
   VRHFIN =Fe:  d7 s1                                                                               
   LEXCH  = PE                                                                                      
   EATOM  =   594.4687 eV,   43.6922 Ry                                                             
                                                                                                    
   TITEL  = PAW_PBE Fe 06Sep2000                                                                    
   LULTRA =        F    use ultrasoft PP ?                                                          
   IUNSCR =        1    unscreen: 0-lin 1-nonlin 2-no                                               
   RPACOR =    2.000    partial core radius                                                         
   POMASS =   55.847; ZVAL   =    8.000    mass and valenz                                          
   RCORE  =    2.300    outmost cutoff radius                                                       
   RWIGS  =    2.460; RWIGS  =    1.302    wigner-seitz radius (au A)                               
   ENMAX  =  267.883; ENMIN  =  200.912 eV                                                          
   RCLOC  =    1.701    cutoff for local pot                                                        
   LCOR   =        T    correct aug charges                                                         
   LPAW   =        T    paw PP                                                                      
   EAUG   =  511.368                                                                                
   DEXC   =    -.022                                                                                
   RMAX   =    2.817    core radius for proj-oper                                                   
   RAUG   =    1.300    factor for augmentation sphere                                              
   RDEP   =    2.442    radius for radial grids                                                     
   QCUT   =   -4.437; QGAM   =    8.874    optimization parameters                                  
                                                                                                    
   Description                                                                                      
     l     E      TYP  RCUT    TYP  RCUT                                                            
     2   .000     23  2.300                                                                         
     2   .000     23  2.300                                                                         
     0   .000     23  2.300                                                                         
     0   .000     23  2.300                                                                         
     1  -.200     23  2.300                                                                         
     1   .000     23  2.300                                                                         
     3   .000      7   .000                                                                         
  local pseudopotential read in
  partial core-charges read in
  atomic valenz-charges read in
  non local Contribution for L=           2  read in
    real space projection operators read in
  non local Contribution for L=           2  read in
    real space projection operators read in
  non local Contribution for L=           0  read in
    real space projection operators read in
  non local Contribution for L=           0  read in
    real space projection operators read in
  non local Contribution for L=           1  read in
    real space projection operators read in
  non local Contribution for L=           1  read in
    real space projection operators read in
    PAW grid and wavefunctions read in
 
   number of l-projection  operators is LMAX  =           6
   number of lm-projection operators is LMMAX =          18
 
 -----------------------------------------------------------------------------
|                                                                             |
|               ----> ADVICE to this user running VASP <----                  |
|                                                                             |
|     You have a (more or less) 'large supercell' and for larger cells it     |
|     might be more efficient to use real-space projection operators.         |
|     Therefore, try LREAL= Auto in the INCAR file.                           |
|     Mind: If you want to do very accurate calculations, keep the            |
|     reciprocal projection scheme (i.e. LREAL=.FALSE.).                      |
|                                                                             |
 -----------------------------------------------------------------------------

 PAW_PBE O 08Apr2002                    :
 energy of atom  1       EATOM= -432.3788
 kinetic energy error for atom=    0.1156 (will be added to EATOM!!)
  PAW_PBE P 17Jan2003                   :
 energy of atom  2       EATOM= -176.0430
 kinetic energy error for atom=    0.0023 (will be added to EATOM!!)
 PAW_PBE Li_sv 23Jan2001                :
 energy of atom  3       EATOM= -202.7858
 kinetic energy error for atom=    0.0051 (will be added to EATOM!!)
 PAW_PBE Fe 06Sep2000                   :
 energy of atom  4       EATOM= -594.4687
 kinetic energy error for atom=    0.0088 (will be added to EATOM!!)
 
 
 POSCAR: OXC
  positions in direct lattice
  velocities in cartesian coordinates

  MD-specific parameters
                MDALGO =   2
                 CNEXP =     9.000   14.000
 exchange correlation table for  LEXCH =        8
   RHO(1)=    0.500       N(1)  =     2000
   RHO(2)=  100.500       N(2)  =     4000
 


--------------------------------------------------------------------------------------------------------


 ion  position               nearest neighbor table
   1  0.096  0.250  0.742-  17 1.54  24 2.19  21 2.19  27 2.22
   2  0.835  0.547  0.715-  20 1.57  25 2.09  24 2.21  26 2.27
   3  0.835  0.953  0.715-  20 1.57  25 2.09  21 2.21  26 2.27
   4  0.904  0.750  0.258-  20 1.54  24 2.19  21 2.19  26 2.22
   5  0.044  0.750  0.708-  20 1.55  21 2.11  24 2.11  28 2.14
   6  0.404  0.750  0.242-  18 1.54  23 2.19  22 2.19  28 2.22
   7  0.165  0.047  0.285-  17 1.57  28 2.09  21 2.21  27 2.27
   8  0.665  0.453  0.215-  19 1.57  26 2.09  22 2.21  25 2.27
   9  0.335  0.547  0.785-  18 1.57  27 2.09  22 2.21  28 2.27
  10  0.335  0.953  0.785-  18 1.57  27 2.09  23 2.21  28 2.27
  11  0.956  0.250  0.292-  17 1.55  21 2.11  24 2.11  25 2.14
  12  0.456  0.250  0.208-  19 1.55  22 2.11  23 2.11  27 2.14
  13  0.544  0.750  0.792-  18 1.55  22 2.11  23 2.11  26 2.14
  14  0.596  0.250  0.758-  19 1.54  23 2.19  22 2.19  25 2.22
  15  0.665  0.047  0.215-  19 1.57  26 2.09  23 2.21  25 2.27
  16  0.165  0.453  0.285-  17 1.57  28 2.09  24 2.21  27 2.27
  17  0.094  0.250  0.418-   1 1.54  11 1.55   7 1.57  16 1.57  21 2.68  24 2.68  27 2.87
  18  0.406  0.750  0.918-   6 1.54  13 1.55   9 1.57  10 1.57  22 2.68  23 2.68  28 2.87
  19  0.594  0.250  0.082-  14 1.54  12 1.55   8 1.57  15 1.57  22 2.68  23 2.68  25 2.87
  20  0.906  0.750  0.582-   4 1.54   5 1.55   2 1.57   3 1.57  21 2.68  24 2.68  26 2.87
  21  0.000  0.000  0.000-   5 2.11  11 2.11   4 2.19   1 2.19   3 2.21   7 2.21  17 2.68  20 2.68

  22  0.500  0.500  0.500-  12 2.11  13 2.11   6 2.19  14 2.19   9 2.21   8 2.21  18 2.68  19 2.68

  23  0.500  0.000  0.500-  12 2.11  13 2.11   6 2.19  14 2.19  10 2.21  15 2.21  18 2.68  19 2.68

  24  0.000  0.500  0.000-   5 2.11  11 2.11   4 2.19   1 2.19   2 2.21  16 2.21  17 2.68  20 2.68

  25  0.781  0.250  0.525-   3 2.09   2 2.09  11 2.14  14 2.22  15 2.27   8 2.27  19 2.87
  26  0.719  0.750  0.025-  15 2.09   8 2.09  13 2.14   4 2.22   2 2.27   3 2.27  20 2.87
  27  0.281  0.250  0.975-  10 2.09   9 2.09  12 2.14   1 2.22  16 2.27   7 2.27  17 2.87
  28  0.219  0.750  0.475-  16 2.09   7 2.09   5 2.14   6 2.22   9 2.27  10 2.27  18 2.87
 

IMPORTANT INFORMATION: All symmetrisations will be switched off!
NOSYMM: (Re-)initialisation of all symmetry stuff for point group C_1.


----------------------------------------------------------------------------------------

                                     Primitive cell                                     

  volume of cell :     300.2893

  direct lattice vectors                    reciprocal lattice vectors
    10.416082157  0.000000000  0.000000000     0.096005387  0.000000000  0.000000000
     0.000000000  6.069832095 -0.000000045     0.000000000  0.164749203  0.000000062
     0.000000000 -0.000001782  4.749618869     0.000000000  0.000000002  0.210543209

  length of vectors
    10.416082157  6.069832095  4.749618869     0.096005387  0.164749203  0.210543209

  position of ions in fractional coordinates (direct lattice)
     0.096019127  0.250000000  0.741632648
     0.834773645  0.546569122  0.714701211
     0.834773645  0.953431878  0.714701211
     0.903981873  0.750000000  0.258368352
     0.043764527  0.750000000  0.707825473
     0.403980873  0.750000000  0.241631648
     0.165226355  0.046569122  0.285299789
     0.665226355  0.453430878  0.214700211
     0.334773645  0.546569122  0.785299789
     0.334773645  0.953431878  0.785299789
     0.956235473  0.250000000  0.292175527
     0.456235473  0.250000000  0.207824473
     0.543764527  0.750000000  0.792176527
     0.596019127  0.250000000  0.758369352
     0.665226355  0.046569122  0.214700211
     0.165226355  0.453430878  0.285299789
     0.093989809  0.250000000  0.418087982
     0.406010191  0.750000000  0.918088982
     0.593989809  0.250000000  0.081910018
     0.906010191  0.750000000  0.581911018
     0.000000000  0.000000000  0.000000000
     0.500000000  0.500000000  0.500000000
     0.500000000  0.000000000  0.500000000
     0.000000000  0.500000000  0.000000000
     0.780897651  0.250000000  0.525469441
     0.719102349  0.750000000  0.025471441
     0.280897651  0.250000000  0.974529559
     0.219102349  0.750000000  0.474529559

  ion indices of the primitive-cell ions
   primitive index   ion index
                 1           1
                 2           2
                 3           3
                 4           4
                 5           5
                 6           6
                 7           7
                 8           8
                 9           9
                10          10
                11          11
                12          12
                13          13
                14          14
                15          15
                16          16
                17          17
                18          18
                19          19
                20          20
                21          21
                22          22
                23          23
                24          24
                25          25
                26          26
                27          27
                28          28

----------------------------------------------------------------------------------------

 
 
 KPOINTS: Automatic mesh                          

Automatic generation of k-mesh.
 Grid dimensions read from file:
 generate k-points for:    1    1    1

 Generating k-lattice:

  Cartesian coordinates                     Fractional coordinates (reciprocal lattice)
     0.096005387  0.000000000  0.000000000     1.000000000  0.000000000  0.000000000
     0.000000000  0.164749203  0.000000062     0.000000000  1.000000000  0.000000000
     0.000000000  0.000000002  0.210543209     0.000000000  0.000000000  1.000000000

  Length of vectors
     0.096005387  0.164749203  0.210543209

  Shift w.r.t. Gamma in fractional coordinates (k-lattice)
     0.000000000  0.000000000  0.000000000

 
 Subroutine IBZKPT returns following result:
 ===========================================
 
 Found      1 irreducible k-points:
 
 Following reciprocal coordinates:
            Coordinates               Weight
  0.000000  0.000000  0.000000      1.000000
 
 Following cartesian coordinates:
            Coordinates               Weight
  0.000000  0.000000  0.000000      1.000000
 


--------------------------------------------------------------------------------------------------------




 Dimension of arrays:
   k-points           NKPTS =      1   k-points in BZ     NKDIM =      1   number of bands    NBANDS=     96
   number of dos      NEDOS =    301   number of ions     NIONS =     28
   non local maximal  LDIM  =      6   non local SUM 2l+1 LMDIM =     18
   total plane-waves  NPLWV =  38880
   max r-space proj   IRMAX =      1   max aug-charges    IRDMAX=   4811
   dimension x,y,z NGX =    54 NGY =   30 NGZ =   24
   dimension x,y,z NGXF=   108 NGYF=   60 NGZF=   48
   support grid    NGXF=   108 NGYF=   60 NGZF=   48
   ions per type =              16   4   4   4
   NGX,Y,Z   is equivalent  to a cutoff of   8.62,  8.22,  8.40 a.u.
   NGXF,Y,Z  is equivalent  to a cutoff of  17.24, 16.43, 16.80 a.u.

 SYSTEM =  MD-OXC                                  
 POSCAR =  OXC                                     

 Startparameter for this run:
   NWRITE =      2    write-flag & timer
   PREC   = normal    normal or accurate (medium, high low for compatibility)
   ISTART =      0    job   : 0-new  1-cont  2-samecut
   ICHARG =      2    charge: 1-file 2-atom 10-const
   ISPIN  =      1    spin polarized calculation?
   LNONCOLLINEAR =      F non collinear calculations
   LSORBIT =      F    spin-orbit coupling
   INIWAV =      1    electr: 0-lowe 1-rand  2-diag
   LASPH  =      F    aspherical Exc in radial PAW
 Electronic Relaxation 1
   ENCUT  =  400.0 eV  29.40 Ry    5.42 a.u.  16.99  9.90  7.75*2*pi/ulx,y,z
   ENINI  =  400.0     initial cutoff
   ENAUG  =  605.4 eV  augmentation charge cutoff
   NELM   =     60;   NELMIN=  2; NELMDL=  0     # of ELM steps 
   EDIFF  = 0.1E-03   stopping-criterion for ELM
   LREAL  =      F    real-space projection
   NLSPLINE    = F    spline interpolate recip. space projectors
   LCOMPAT=      F    compatible to vasp.4.4
   GGA_COMPAT  = T    GGA compatible to vasp.4.4-vasp.4.6
   LMAXPAW     = -100 max onsite density
   LMAXMIX     =    2 max onsite mixed and CHGCAR
   VOSKOWN=      0    Vosko Wilk Nusair interpolation
   ROPT   =    0.00000   0.00000   0.00000   0.00000
 Ionic relaxation
   EDIFFG = 0.1E-02   stopping-criterion for IOM
   NSW    =    500    number of steps for IOM
   NBLOCK =      1;   KBLOCK =    500    inner block; outer block 
   IBRION =      0    ionic relax: 0-MD 1-quasi-New 2-CG
   NFREE  =      0    steps in history (QN), initial steepest desc. (CG)
   ISIF   =      0    stress and relaxation
   IWAVPR =     12    prediction:  0-non 1-charg 2-wave 3-comb
   ISYM   =      0    0-nonsym 1-usesym 2-fastsym
   LCORR  =      T    Harris-Foulkes like correction to forces

   POTIM  = 1.0000    time-step for ionic-motion
   TEIN   =    0.0    initial temperature
   TEBEG  =  300.0;   TEEND  = 300.0 temperature during run
   SMASS  =   0.02    Nose mass-parameter (am)
   estimated Nose-frequenzy (Omega)   =  0.16E+15 period in steps = 0.40E+02 mass=   0.125E-28a.u.
   SCALEE = 1.0000    scale energy and forces
   NPACO  =    256;   APACO  = 10.0  distance and # of slots for P.C.
   PSTRESS=    0.0 pullay stress

  Mass of Ions in am
   POMASS =  16.00 30.97  7.01 55.85
  Ionic Valenz
   ZVAL   =   6.00  5.00  3.00  8.00
  Atomic Wigner-Seitz radii
   RWIGS  =  -1.00 -1.00 -1.00 -1.00
  virtual crystal weights 
   VCA    =   1.00  1.00  1.00  1.00
   NELECT =     160.0000    total number of electrons
   NUPDOWN=      -1.0000    fix difference up-down

 DOS related values:
   EMIN   =  10.00;   EMAX   =-10.00  energy-range for DOS
   EFERMI =   0.00
   ISMEAR =     0;   SIGMA  =   0.10  broadening in eV -4-tet -1-fermi 0-gaus

 Electronic relaxation 2 (details)
   IALGO  =     38    algorithm
   LDIAG  =      T    sub-space diagonalisation (order eigenvalues)
   LSUBROT=      F    optimize rotation matrix (better conditioning)
   TURBO    =      0    0=normal 1=particle mesh
   IRESTART =      0    0=no restart 2=restart with 2 vectors
   NREBOOT  =      0    no. of reboots
   NMIN     =      0    reboot dimension
   EREF     =   0.00    reference energy to select bands
   IMIX   =      4    mixing-type and parameters
     AMIX     =   0.40;   BMIX     =  1.00
     AMIX_MAG =   1.60;   BMIX_MAG =  1.00
     AMIN     =   0.10
     WC   =   100.;   INIMIX=   1;  MIXPRE=   1;  MAXMIX= -45

 Intra band minimization:
   WEIMIN = 0.0010     energy-eigenvalue tresh-hold
   EBREAK =  0.26E-06  absolut break condition
   DEPER  =   0.30     relativ break condition  

   TIME   =   0.40     timestep for ELM

  volume/ion in A,a.u.               =      10.72        72.37
  Fermi-wavevector in a.u.,A,eV,Ry     =   1.327195  2.508036 23.965951  1.761448
  Thomas-Fermi vector in A             =   2.456526
 
 Write flags
   LWAVE        =      F    write WAVECAR
   LDOWNSAMPLE  =      F    k-point downsampling of WAVECAR
   LCHARG       =      F    write CHGCAR
   LVTOT        =      F    write LOCPOT, total local potential
   LVHAR        =      F    write LOCPOT, Hartree potential only
   LELF         =      F    write electronic localiz. function (ELF)
   LORBIT       =      0    0 simple, 1 ext, 2 COOP (PROOUT), +10 PAW based schemes


 Dipole corrections
   LMONO  =      F    monopole corrections only (constant potential shift)
   LDIPOL =      F    correct potential (dipole corrections)
   IDIPOL =      0    1-x, 2-y, 3-z, 4-all directions 
   EPSILON=  1.0000000 bulk dielectric constant

 Exchange correlation treatment:
   GGA     =    --    GGA type
   LEXCH   =     8    internal setting for exchange type
   LIBXC   =     F    Libxc                    
   VOSKOWN =     0    Vosko Wilk Nusair interpolation
   LHFCALC =     F    Hartree Fock is set to
   LHFONE  =     F    Hartree Fock one center treatment
   AEXX    =    0.0000 exact exchange contribution

 Linear response parameters
   LEPSILON=     F    determine dielectric tensor
   LRPA    =     F    only Hartree local field effects (RPA)
   LNABLA  =     F    use nabla operator in PAW spheres
   LVEL    =     F    velocity operator in full k-point grid
   CSHIFT  =0.1000    complex shift for real part using Kramers Kronig
   OMEGAMAX=  -1.0    maximum frequency
   DEG_THRESHOLD= 0.2000000E-02 threshold for treating states as degnerate
   RTIME   =   -0.100 relaxation time in fs
  (WPLASMAI=    0.000 imaginary part of plasma frequency in eV, 0.658/RTIME)
   DFIELD  = 0.0000000 0.0000000 0.0000000 field for delta impulse in time
 
  Optional k-point grid parameters
   LKPOINTS_OPT  =     F    use optional k-point grid
   KPOINTS_OPT_MODE=     1    mode for optional k-point grid
 
 Orbital magnetization related:
   ORBITALMAG=     F  switch on orbital magnetization
   LCHIMAG   =     F  perturbation theory with respect to B field
   DQ        =  0.001000  dq finite difference perturbation B field
   LLRAUG    =     F  two centre corrections for induced B field



--------------------------------------------------------------------------------------------------------


 molecular dynamics for ions
   using nose mass (canonical ensemble)
 charge density and potential will be updated during run
 non-spin polarized calculation
 Variant of blocked Davidson
 Davidson routine will perform the subspace rotation
 perform sub-space diagonalisation
    after iterative eigenvector-optimisation
 modified Broyden-mixing scheme, WC =      100.0
 initial mixing is a Kerker type mixing with AMIX =  0.4000 and BMIX =      1.0000
 Hartree-type preconditioning will be used
 using additional bands           16
 reciprocal scheme for non local part
 use partial core corrections
 calculate Harris-corrections to forces 
   (improved forces if not selfconsistent)
 use gradient corrections 
 use of overlap-Matrix (Vanderbilt PP)
 Gauss-broadening in eV      SIGMA  =   0.10


--------------------------------------------------------------------------------------------------------


  energy-cutoff  :      400.00
  volume of cell :      300.29
      direct lattice vectors                 reciprocal lattice vectors
    10.416082157  0.000000000  0.000000000     0.096005387  0.000000000  0.000000000
     0.000000000  6.069832095 -0.000000045     0.000000000  0.164749203  0.000000062
     0.000000000 -0.000001782  4.749618869     0.000000000  0.000000002  0.210543209

  length of vectors
    10.416082157  6.069832095  4.749618869     0.096005387  0.164749203  0.210543209


 
 k-points in units of 2pi/SCALE and weight: Automatic mesh                          
   0.00000000  0.00000000  0.00000000       1.000
 
 k-points in reciprocal lattice and weights: Automatic mesh                          
   0.00000000  0.00000000  0.00000000       1.000
 
 position of ions in fractional coordinates (direct lattice) 
   0.09601913  0.25000000  0.74163265
   0.83477364  0.54656912  0.71470121
   0.83477364  0.95343188  0.71470121
   0.90398187  0.75000000  0.25836835
   0.04376453  0.75000000  0.70782547
   0.40398087  0.75000000  0.24163165
   0.16522636  0.04656912  0.28529979
   0.66522636  0.45343088  0.21470021
   0.33477364  0.54656912  0.78529979
   0.33477364  0.95343188  0.78529979
   0.95623547  0.25000000  0.29217553
   0.45623547  0.25000000  0.20782447
   0.54376453  0.75000000  0.79217653
   0.59601913  0.25000000  0.75836935
   0.66522636  0.04656912  0.21470021
   0.16522636  0.45343088  0.28529979
   0.09398981  0.25000000  0.41808798
   0.40601019  0.75000000  0.91808898
   0.59398981  0.25000000  0.08191002
   0.90601019  0.75000000  0.58191102
   0.00000000  0.00000000  0.00000000
   0.50000000  0.50000000  0.50000000
   0.50000000  0.00000000  0.50000000
   0.00000000  0.50000000  0.00000000
   0.78089765  0.25000000  0.52546944
   0.71910235  0.75000000  0.02547144
   0.28089765  0.25000000  0.97452956
   0.21910235  0.75000000  0.47452956
 
 position of ions in cartesian coordinates  (Angst):
   1.00014311  1.51745670  3.52247241
   8.69507086  3.31758153  3.39455833
   8.69507086  5.78717014  3.39455831
   9.41594946  4.55237361  1.22715117
   0.45585491  4.55237281  3.36190119
   4.20789797  4.55237364  1.14765820
   1.72101129  0.28266624  1.35506526
   6.92905237  2.75224891  1.01974415
   3.48702979  3.31758140  3.72987467
   3.48702979  5.78717001  3.72987465
   9.96022725  1.51745750  1.38772239
   4.75218617  1.51745765  0.98708702
   5.66389599  4.55237266  3.76253655
   6.20818419  1.51745667  3.60196537
   6.92905237  0.28266637  1.01974417
   1.72101129  2.75224879  1.35506524
   0.97900557  1.51745728  1.98575856
   4.22903551  4.55237243  4.36057272
   6.18704665  1.51745788  0.38904136
   9.43707658  4.55237303  2.76385552
   0.00000000  0.00000000  0.00000000
   5.20804108  3.03491516  2.37480941
   5.20804108 -0.00000089  2.37480943
   0.00000000  3.03491605 -0.00000002
   8.13389409  1.51745709  2.49577956
   7.49022915  4.55237403  0.12097960
   2.92585301  1.51745629  4.62864397
   2.28218807  4.55237323  2.25383451
 


--------------------------------------------------------------------------------------------------------


 k-point   1 :   0.0000 0.0000 0.0000  plane waves:    5469

 maximum and minimum number of plane-waves per node :      5469     5469

 maximum number of plane-waves:      5469
 maximum index in each direction: 
   IXMAX=   16   IYMAX=    9   IZMAX=    7
   IXMIN=  -16   IYMIN=   -9   IZMIN=   -7


 serial   3D FFT for wavefunctions
 parallel 3D FFT for charge:
    minimum data exchange during FFTs selected (reduces bandwidth)


 total amount of memory used by VASP MPI-rank0    80581. kBytes
=======================================================================

   base      :      30000. kBytes
   nonl-proj :       5600. kBytes
   fftplans  :      11040. kBytes
   grid      :      24701. kBytes
   one-center:        435. kBytes
   wavefun   :       8805. kBytes
 
     INWAV:  cpu time      0.0000: real time      0.0000
 Broyden mixing: mesh for mixing (old mesh)
   NGX = 33   NGY = 19   NGZ = 15
  (NGX  =108   NGY  = 60   NGZ  = 48)
  gives a total of   9405 points

 initial charge density was supplied:
 charge density of overlapping atoms calculated
 number of electron     160.0000000 magnetization 
 keeping initial charge density in first step


--------------------------------------------------------------------------------------------------------


 Maximum index for augmentation-charges         4450 (set IRDMAX)


--------------------------------------------------------------------------------------------------------


 First call to EWALD:  gamma=   0.265
 Maximum number of real-space cells 2x 3x 4
 Maximum number of reciprocal cells 4x 3x 2

    FEWALD:  cpu time      0.0036: real time      0.0117


--------------------------------------- Iteration      1(   1)  ---------------------------------------


    POTLOK:  cpu time      0.1303: real time      0.1374
    SETDIJ:  cpu time      0.0245: real time      0.0247
     EDDAV:  cpu time      1.0502: real time      1.0582
       DOS:  cpu time      0.0010: real time      0.0010
    --------------------------------------------
      LOOP:  cpu time      1.2061: real time      1.221     EDDAV:  cpu time      1.0264: real time      1.0315
       DOS:  cpu time      0.0005: real time      0     EDDAV:  cpu time      1.0369: real time      1.0427
       DOS:  cpu time      0.0005: real time      0     EDDAV:  cpu time      1.0277: real time      1.0326
       DOS:  cpu time      0.0010: real time      0.     EDDAV:  cpu time      1.0396: real time      1.0460
       DOS:  cpu time      0.0010: real time      0     EDDAV:  cpu time      1.0438: real time      1.0788
       DOS:  cpu time      0.0009: real time      0     EDDAV:  cpu time      1.1117: real time      1.1405
       DOS:  cpu time      0.0011: real time      0.     EDDAV:  cpu time      1.0463: real time      1.0526
       DOS:  cpu time      0.0006: real time      0.0055
    --------------------------------------------
      LOOP:  cpu time      1.2033: real time      1.3026

 e     EDDAV:  cpu time      1.0762: real time      1.0831
       DOS:  cpu time      0.0005: real time      0     EDDAV:  cpu time      1.1560: real time      1.1609
       DOS:  cpu time      0.0010: real time      0.0010
    --------------------------------------------
      LOOP:  cpu time      1.3184     EDDAV:  cpu time      1.0000: real time      1.0041
       DOS:  cpu time      0.0004: real time      0.0004
    --------------------------------------------
      LOOP:  cpu time      1.0003: real time      1.004     EDDAV:  cpu time      1.0064: real time      1.0108
       DOS:  cpu time      0.0004: real time      0     EDDAV:  cpu time      1.0092: real time      1.0130
       DOS:  cpu time      0.0004: real time      0     EDDAV:  cpu time      0.9954: real time      0.9992
       DOS:  cpu time      0.0003: real time      0.     EDDAV:  cpu time      0.9979: real time      1.0015
       DOS:  cpu time      0.0003: real time      0     EDDAV:  cpu time      1.0006: real time      1.0040
       DOS:  cpu time      0.0004: real time      0     EDDAV:  cpu time      1.1829: real time      1.2361
       DOS:  cpu time      0.0005: real time      0.0052
    --------------------------------------------
      LOOP:  cpu time      1.1834: real time      1.2365

 eigenvalue-minimisations  :   200
 total energy-change (2. order) :-0.1693606E+04  (-0.1567349E+04)
 number of     EDDAV:  cpu time      1.0053: real time      1.0089
       DOS:  cpu time      0.0003: real time      0     EDDAV:  cpu time      1.1868: real time      1.1915
       DOS:  cpu time      0.0003: real time      0.0003
    --------------------------------------------
      LOOP:  cpu time      1.1871     EDDAV:  cpu time      1.1342: real time      1.1386
       DOS:  cpu time      0.0004: real time      0.0004
    --------------------------------------------
      LOOP:  cpu time      1.1346: real time      1.139     EDDAV:  cpu time      1.1430: real time      1.1478
       DOS:  cpu time      0.0004: real time      0     EDDAV:  cpu time      1.1586: real time      1.1626
       DOS:  cpu time      0.0004: real time      0     EDDAV:  cpu time      1.1417: real time      1.1460
       DOS:  cpu time      0.0004: real time      0.     EDDAV:  cpu time      1.1530: real time      1.1567
       DOS:  cpu time      0.0004: real time      0     EDDAV:  cpu time      1.1524: real time      1.1561
       DOS:  cpu time      0.0005: real time      0     EDDAV:  cpu time      1.3456: real time      1.3546
       DOS:  cpu time      0.0010: real time      0.0010
    --------------------------------------------
      LOOP:  cpu time      1.3466: real time      1.3556

 eigenvalue-minimisations  :   240
 total energy-change (2. order) :-0.3160655E+03  (-0.3016819E+03)
 number of electron     160.0000000 magnetization 
 augmentation part      160.0000000 magnetization 

 Free energy of     EDDAV:  cpu time      1.3015: real time      1.3067
       DOS:  cpu time      0.0004: real time      0.0004
    --------------------------------------------
      LOOP:  cpu time      1.3020     EDDAV:  cpu time      1.1204: real time      1.1249
       DOS:  cpu time      0.0005: real time      0.0005
    --------------------------------------------
      LOOP:  cpu time      1.1209: real time      1.125     EDDAV:  cpu time      1.1308: real time      1.1357
       DOS:  cpu time      0.0004: real time      0     EDDAV:  cpu time      1.1201: real time      1.1243
       DOS:  cpu time      0.0004: real time      0     EDDAV:  cpu time      1.1063: real time      1.1108
       DOS:  cpu time      0.0004: real time      0.     EDDAV:  cpu time      1.1146: real time      1.1190
       DOS:  cpu time      0.0004: real time      0     EDDAV:  cpu time      1.1164: real time      1.1243
       DOS:  cpu time      0.0007: real time      0     EDDAV:  cpu time      1.2039: real time      1.2085
       DOS:  cpu time      0.0004: real time      0.0004
    --------------------------------------------
      LOOP:  cpu time      1.2042: real time      1.2088

 eigenvalue-minimisations  :   240
 total energy-change (2. order) :-0.2098048E+02  (-0.2040936E+02)
 number of electron     160.0000000 magnetization 
 augmentation part      160.0000000 magnetization 

 Free energy of     EDDAV:  cpu time      1.1021: real time      1.1067
       DOS:  cpu time      0.0004: real time      0.0004
    --------------------------------------------
      LOOP:  cpu time      1.1025     EDDAV:  cpu time      1.2739: real time      1.2788
       DOS:  cpu time      0.0004: real time      0.0004
    CHARGE:  cpu time      0.0522: real time      0.0524
    MIXING:  cpu time      0.0041: real time      0.0041
    --------------------------------------------
      LOOP:  cpu time      1.3305: real time          EDDAV:  cpu time      1.2885: real time      1.2930
       DOS:  cpu time      0.0004: real time      0     E    CHARGE:  cpu time      0.0457: real time      0.0459
    MIXING:  cpu time      0.0041: real time       EDDAV:  cpu time      1.2842: real time      1.2893
       DOS:  cpu time      0.0004: real time      0     EDDAV:  cpu time      1.2873: real time      1.3541
       DOS:  cpu time      0.0005: real time      0     EDDAV:  cpu time      1.3838: real time      1.3891
       DOS:  cpu time      0.0004: real time      0.0004
    CHARGE:  cpu time      0.0522: real time      0.0524
    MIXING:  cpu time      0.0042: real time      0.0042
    --------------------------------------------
      LOOP:  cpu time      1.4407: real time      1.4461

 eigenvalue-minimisations  :   288
 total energy-change (2. order) :-0.9142470E+00  (-0.9106225E+00)
 num     EDDAV:  cpu time      1.2775: real time      1.2831
       DOS:  cpu time      0.0004: real time      0.0004
    CHARGE:  cpu time      0.0553: real time      0.0555
    MIXING:  cpu time      0.0040: real time      0.0041
    --------------------------------------------
      LOOP:  cpu time      1.3373: real time      1.3431

 eigenvalue-minimisations  :   288
 total energy-change (2. order) :-0.9142470E+00  (-0.9106225E+00)
 number of electron     160.0000233 magnetization 
 augmentation part       29.1307113 magnetization 

 Broyden mixing:
  rms(to     EDDAV:  cpu time      1.1817: real time      1.1861
       DOS:  cpu time      0.0003: real time      0.0003
    CHARGE:  cpu time      0.0422: real time      0.0423
    MIXING:  cpu time      0.0044: real time        EDDAV:  cpu time      1.1893: real time      1.1941
       DOS:  cpu time      0.0003: real time      0     EDDAV:  cpu time      1.2072: real time      1.2114
       DOS:  cpu time      0.0004: real time      0.0004
    CHARGE:  cpu time      0.0454: real time      0.0456
    MIXING:  cpu time      0.0043: real time       EDDAV:  cpu time      1.2000: real time      1.2048
       DOS:  cpu time      0.0004: real time      0     EDDAV:  cpu time      1.1978: real time      1.2058
       DOS:  cpu time      0.0009: real time      0     EDDAV:  cpu time      1.2851: real time      1.2905
       DOS:  cpu time      0.0009: real time      0.0009
    CHARGE:  cpu time      0.0457: real time      0.0459
    MIXING:  cpu time      0.0051: real time      0.0051
    --------------------------------------------
      LOOP:  cpu time      1.4914: real time      1.4975

 eigenvalue-minimisations  :   264
 total energy-change (2. order) : 0.5946522E+01  (-0.2832716E+02)
 number of electron     160.0000107 magnetization 
 augmentation part       37.4689369 magnetization 

 Broyden mixing:
  rms(total) = 0.53688E+01    rms(broyden)= 0.53645E+01
  rms(prec ) = 0.73274E+01
  weight for this iteration     100.00

 eigenvalues of (default mixing * dielectric matrix)
  average eigenvalue GAMMA=   0.3983
  0.3983

 Free energy of the ion-electron system (eV)
  ---------------------------------------------------
  alpha Z        PSCENC =       483.10018356
  Ewald energy   TEWEN  =     -7966.88980323
  -Hartree energ DENC   =     -2925.48133369
  -exchange      EXHF   =         0.00000000
  -V(xc)+E(xc)   XCENC  =       533.73624802
      EDDAV:  cpu time      1.1557: real time      1.1597
       DOS:  cpu time      0.0003: real time      0.0003
    CHARGE:  cpu time      0.0418: real time      0.0419
    MIXING:  cpu time      0.0043: real time        EDDAV:  cpu time      1.1651: real time      1.1697
       DOS:  cpu time      0.0003: real time      0     EDDAV:  cpu time      1.1695: real time      1.1734
       DOS:  cpu time      0.0003: real time      0.0003
    CHARGE:  cpu time      0.0417: real time      0.0419
    MIXING:  cpu time      0.0045: real time       EDDAV:  cpu time      1.1622: real time      1.1669
       DOS:  cpu time      0.0003: real time      0     EDDAV:  cpu time      1.1934: real time      1.1989
       DOS:  cpu time      0.0004: real time      0     EDDAV:  cpu time      1.2197: real time      1.2246
       DOS:  cpu time      0.0003: real time      0.0016
    CHARGE:  cpu time      0.0432: real time      0.0434
    MIXING:  cpu time      0.0045: real time      0.0070
    --------------------------------------------
      LOOP:  cpu time      1.4108: real time      1.4201

 eigenvalue-minimisations  :   264
 total energy-change (2. order) : 0.2159172E+02  (-0.9357424E+01)
 number of electron     160.0000209 magnetization 
 augmentation part       29.6600272 magnetization 

 Broyden mixing:
  rms(total) = 0.13409E+01    rms(broyden)= 0.13241E+01
  rms(prec ) = 0.16392E+01
  weight for this iteration     100.00

 eigenvalues of (default mixing * dielectric matrix)
  average eigenvalue GAMMA=   0.5818
  0.8280  0.3356

 Free energy of the ion-electron system (eV)
  ---------------------------------------------------
  alpha Z        PSCENC =       483.10018356
  Ewald energy   TEWEN  =     -7966.88980323
  -Hartree energ DENC   =     -2953.71331644
  -exchange      EXHF   =         0.00000000
  -V(xc)+E(xc)   XCENC  =       533.63692356
      EDDAV:  cpu time      1.0471: real time      1.0511
       DOS:  cpu time      0.0004: real time      0.0004
    CHARGE:  cpu time      0.0490: real time      0.0491
    MIXING:  cpu time      0.0051: real time        EDDAV:  cpu time      1.0444: real time      1.0486
       DOS:  cpu time      0.0004: real time      0     EDDAV:  cpu time      1.0453: real time      1.0489
          MIXING:  cpu time      0.0048: real time      0    CHARGE:  cpu time      0.0434: real time      0.0435
    MIXING:  cpu time      0.0046: real time       EDDAV:  cpu time      1.0353: real time      1.0389
       DOS:  cpu time      0.0004: real time      0     EDDAV:  cpu time      1.0527: real time      1.0587
       DOS:  cpu time      0.0006: real time      0     EDDAV:  cpu time      1.0599: real time      1.0677
       DOS:  cpu time      0.0004: real time      0.         CHARGE:  cpu time      0.0440: real time      0.0440
    MIXING:  cpu time      0.0049: real time      0.    CHARGE:  cpu time      0.0531: real time      0.0533
    MIXING:  cpu time      0.0053: real time      0.0074
    --------------------------------------------
      LOOP:  cpu time      1.3246: real time      1.4809

 eigenvalue-minimisations  :   224
 total energy-change (2. order) : 0.3089371E+00  (-0.2072901E+01)
 number of electron     160.0000214 magnetization 
 augmentation part       30.0407164 magnetization 

 Broyden mixing:
  rms(total) = 0.10090E+01    rms(broyden)= 0.10082E+01
  rms(prec ) = 0.13700E+01
  weight for this iteration     100.00

 eigenvalues of (default mixing * dielectric matrix)
  average eigenvalue GAMMA=   0.8059
  1.3484  0.3695  0.6996

 Free energy of the ion-electron system (eV)
  ---------------------------------------------------
  alpha Z        PSCENC =       483.10018356
  Ewald energy   TEWEN  =     -7966.88980323
  -Hartree energ DENC   =       EDDAV:  cpu time      1.2636: real time      1.2722
       DOS:  cpu time      0.0005: real time      0.0        CHARGE:  cpu time      0.0413: real time      0.0        MIXING:  cpu time      0.0047: real time        EDDAV:  cpu time      1.2703: real time      1.2753
       DOS:  cpu time      0.0003: real time      0     EDDAV:  cpu time      1.2766: real time      1.2808
       DOS:  cpu time      0.0003: real time      0.0003
    CHARGE:  cpu time      0.0409: real time      0.0411
    MIXING:  cpu time      0.0047: real time      0.0048
    --------------------------------------------
      LOOP:  cpu time      1.4680: real time         EDDAV:  cpu time      1.2771: real time      1.2840
       DOS:  cpu time      0.0005: real time      0     EDDAV:  cpu time      1.3104: real time      1.3158
       DOS:  cpu time      0.0004: real time      0.     EDDAV:  cpu time      1.2801: real time      1.2886
         MIXING:  cpu time      0.0054: real time      0.    CHARGE:  cpu time      0.0415: real time      0.0416
    MIXING:  cpu time      0.0050: real time      0.0077
    --------------------------------------------
      LOOP:  cpu time      1.4846: real time      1.5164

 eigenvalue-minimisations  :   288
 total energy-change (2. order) :-0.1004997E+02  (-0.1190374E+01)
 number of electron     160.0000193 magnetization 
 augmentation part       30.5693595 magnetization 

 Broyden mixing:
  rms(total) = 0.54560E+01    rms(broyden)= 0.54526E+01
  rms(prec ) = 0.82415E+01
  weight for this iteration     100.00

 eigenvalues of (default mixing * dielectric matrix)
  average eigenvalue GAMMA=   0.7198
  1.7269  0.7318  0.3655  0.0548

 Free energy of the ion-electron system (eV)
  ---------------------------------------------------
  alpha Z        PSCENC =       483.10018356
  Ewald energy   TEWEN  =     -7966.88980323
  -Hartree energ DENC   =       EDDAV:  cpu time      1.2313: real time      1.2359
       DOS:  cpu time      0.0004: real time      0.0     EDDAV:  cpu time      1.2717: real time      1.2765
       DOS:  cpu time      0.0004: real time      0     EDDAV:  cpu time      1.2547: real time      1.2597
       DOS:  cpu time      0.0004: real time      0     E    CHARGE:  cpu time      0.0483: real time      0.0485
    MIXING:  cpu time      0.0054: real time      0    CHARGE:  cpu time      0.0429: real time      0.0429
    MIXING:  cpu time      0.0046: real time      0.0047
    --------------------------------------------
      LOOP:  cpu time      1.4387: real time         EDDAV:  cpu time      1.2490: real time      1.2569
       DOS:  cpu time      0.0006: real time      0     EDDAV:  cpu time      1.2902: real time      1.2959
       DOS:  cpu time      0.0006: real time      0.0259
    CHARGE:  cpu time      0.0481: real time      0.0545
    MIXING:  cpu time      0.0059: real time      0.0087
    --------------------------------------------
      LOOP:  cpu time      1.4881: real time      1.5372

 eigenvalue-minimisations  :   280
 total energy-change (2. order) : 0.7218997E+01  (-0.2029855E+01)
 number of electron     160.0000192 magnetization 
 augmentation part       30.6313613 magnetization 

 Broyden mixing:
  rms(total) = 0.37678E+01    rms(broyden)= 0.37660E+01
  rms(prec ) = 0.60018E+01
  weight for this iteration     100.00

 eigenvalues of (default mixing * dielectric matrix)
  average eigenvalue GAMMA=   0.5979
  1.7849  0.7376  0.3650  0.0550  0.0468

 Free energy of the ion-electron system (eV)
  ---------------------------------------------------
  alpha Z        PSCENC =       483.10018356
  Ewald energy   TEWEN  =     -7966.88980323
  -Hartree energ DENC   =     -2984.51404769
  -exchange      EXHF   =         0.00000000
  -V(xc)+E(xc)   XCENC  =       537.06320012
  PAW double counting   =      7240.38966718    -7365.50115633
  entropy T*S    EENTRO =        -0.12311957
  e     EDDAV:  cpu time      1.2294: real time      1.2338
       DOS:  cpu time      0.0005: real time      0     E    CHARGE:  cpu time      0.0430: real time      0.0441
    MIXING:  cpu time      0.0051: real time      E    CHARGE:  cpu time      0.0422: real time      0.0424
    MIXING:  cpu time      0.0050: real time      0    CHARGE:  cpu time      0.0421: real time      0.0422
    MIXING:  cpu time      0.0048: real time       EDDAV:    ------------------------------------------       DOS:  cpu time      0.0004: real time     PO     EDDAV:  cpu time      1.2165: real time      1.2209
       DOS:  cpu time      0.0005: real time      0     EDDAV:  cpu time      1.2562: real time      1.2629
       DOS:  cpu time      0.0004: real time      0.0033
    CHARGE:  cpu time      0.0437: real time      0.0454
    MIXING:  cpu time      0.0052: real time      0.0086
    --------------------------------------------
      LOOP:  cpu time      1.4540: real time      1.5396

 eigenvalue-minimisations  :   272
 total energy-change (2. order) : 0.3568236E+01  (-0.9399015E+00)
 number of electron     160.0000197 magnetization 
 augmentation part       30.5879337 magnetization 

 Broyden mixing:
  rms(total) = 0.11222E+01    rms(broyden)= 0.11113E+01
  rms(prec ) = 0.16742E+01
  weight for this iteration     100.00

 eigenvalues of (default mixing * dielectric matrix)
  average eigenvalue GAMMA=   0.5286
  1.8301  0.7542  
 eigenvalues of (default mixing * dielectric matrix)
  average eigenvalue GAMMA=   0.5286
  1.8301  0.7542  0.3640  0.1188  0.0600  0.0445

 Free energy of the ion-electron system (eV)
  ---------------------------------------------------
  alpha Z        PSCENC =       483.10018356
  Ewald energy   TEWEN  =     -7966.88980323
  -Hartree energ DENC   =     -2987.88564993
  -exchange      EXHF   =         0.00000000
  -V(xc)+E(xc)   XCENC  =       537.36338966
  PAW double counting   =      7261.54966415    -7387.27635378
  entropy T*S    EENTRO =        -0.13667332
  eigenvalues    EBANDS =      -938.76659430
  atomic energy  EATOM  =     10809.33661609
  Solvation  Ediel_sol  =         0.00000000
  ---------------------------------------------------
  free energy    TOTEN  =      -1      CHARGE:  cpu time      0.0429: real time      0.0481
    MIXING:  cpu time      0.0053: real time       EDDAV:  cpu time      1.2048: real time      1.2092
       DOS:  cpu time      0.0004: real time     PO     EDDAV:  cpu time      1.1950: real time      1.2030
       DOS:  cpu time      0.0004: real time      0     EDDAV:  cpu time      1.2241: real time      1.2292
       DOS:  cpu time      0.0004: real time      0.         CHARGE:  cpu time      0.0437: real time      0.0469
    MIXING:  cpu time      0.0053: real time      0.    CHARGE:  cpu time      0.0427: real time      0.0443
    MIXING:  cpu time      0.0055: real time      0.0072
    --------------------------------------------
      LOOP:  cpu time      1.4137: real time      1.4698

 eigenvalue-minimisations  :   264
 total energy-change (2. order) : 0.4278415E+00  (-0.5498553E+00)
 number of electron     160.0000198 magnetization 
 augmentation part       30.5866106 magnetization 

 Broyden mixing:
  rms(total) = 0.93554E+00    rms(broyden)= 0.93426E+00
  rms(prec ) = 0.13757E+01
  weight for this iteration     100.00

 eigenvalues of (default mixing * dielectric matrix)
  average eigenvalue GAMMA=   0.5615
  2.0690  0.8920  0.4238  0.3795  0.0749  0.0455  0.0455

 Free energy of the ion-electron system (eV)
  ---------------------------------------------------
  alpha Z        PSCENC =       483.10018356
  Ewald energy   TEWEN  =     -7966.88980323
  -Hartree energ DENC   =     -2988.58704681
  -exchange      EXHF   =         0.00000000
  -V(xc)+E(xc)   XCENC  =       537.41859469
  PAW  Free energy of the ion-electron system (eV)
  ---------------------------------------------------
  alpha Z      CHARGE:  cpu time      0.0441: real time      0.0476
    MIXING:  cpu time      0.0056: real time      0.0082
    --------------------------------------------
      LOOP:  cpu time      1.5208: real time      1.5    CHARGE:  cpu time      0.0425: real time      0.0460
    MIXING:  cpu time      0.0056: real time      0.0083
    ------------------------------------------         LOOP:  cpu time      1.5053: real ti    PO     EDDAV:  cpu time      1.3163: real time      1.3252
       DOS:  cpu time      0.0005: real time      0     EDDAV:  cpu time      1.3487: real time      1.3543
       DOS:  cpu time      0.0004: real time      0.     EDDAV:  cpu time      1.3433: real time      1.3511
       DOS:  cpu time      0.0004: real time      0.0054
    CHARGE:  cpu time      0.0431: real time      0.0451
    MIXING:  cpu time      0.0055: real time      0.0069
    --------------------------------------------
      LOOP:  cpu time      1.5390: real time      1.6398

 eigenvalue-minimisations  :   296
 total energy-change (2. order) : 0.1473176E+00  (-0.7106581E-01)
 number     CHARGE:  cpu time      0.0420: real time      0.0444
    MIXING:  cpu time      0.0054: real time      0.0063
    --------------------------------------------
      LOOP:  cpu time      1.5182: real time      1.6654

 eigenvalue-minimisations  :   296
 total energy-change (2. order) : 0.1473176E+00  (-0.7106581E-01)
 number of electron     160.0000202 magnetization 
 augmentation part       30.7172692 magnetization 

 Broyden mixing:
  rms(total) = 0.30574E+00    rms(broyden)= 0.30330E+00
  rms(prec ) = 0.33949E+00
  weight for this iteration     100.00

 eigenvalues of (default mixing * dielectric matrix)
  average eigenvalue GAMMA=   0.6126
  2.4157  0.9912  0.4835  0.4835  0.3608  0.0749  0.0455  0.0455

 Free energy of the ion-electron system (eV)
  ---------------------------------------------------
  alpha Z        PSCENC =       483.10018356
  Ewald energy   TEWEN  =     -7966.88980323
  -Hartree energ DENC   =     -2989.13500068
  -exchange      EXHF   =         0.00000000
  -V(xc)+E(xc)   XCENC  =       537.63647587
  PAW double counting   =      7296.16667554    -7422.03520351
  entropy T*S    EENTRO =        -0.00873815
  eigenvalues    EBANDS =      -937.20126747
  atomic energy  EATOM  =     10809.33661609
  Solvati    PO     EDDAV:  cpu time      1.2236: real time      1.2293
       DOS:  cpu time      0.0005: real time      0     EDDAV:  cpu time      1.2548: real time      1.2595
       DOS:  cpu time      0.0004: real time      0.     EDDAV:  cpu time      1.2559: real time      1.2607
       DOS:  cpu time      0.0005: real time      0.0038
    CHARGE:  cpu time      0.0437: real time      0.0454
    MIXING:  cpu time      0.0058: real time      0.0071
    --------------------------------------------
      LOOP:  cpu time      1.4508: real time      1.5098

 eigenvalue-minimisations  :   272
 total energy-change (2. order) :-0.1062243E-01  (-0.1004178E-01)
 number of electron     160.0000202 magnetization 
 augmentation part       30.8211189 magnetization 

 Broyden mixing:
  rms(total) = 0.24510E+00    rms(broyden)= 0.24497E+00
  rms(prec ) = 0.29893E+00
  weight for this iteration     100.00

 eigenvalues of (default mixing * dielectric matrix)
  average eigenvalue GAMMA=   0.6716
  2.5347  0.9840  0.7597  0.7597  0.4721  0.3689  0.0749  0.0455  0.0455

 Free energy of the ion-electron system (eV)
  ---------------------------------------------------
  alpha Z        PSCENC =       483.10018356
  Ewald energy   TEWEN  =     -7966.88980323
  -Hartree energ DENC   =     -2988.61028247
  -exchange      EXHF   =         0.00000000
  -V(xc)+E(xc)   XCENC  =       537.77085533
  PAW double counting   =      7314.08053445    -7440.20161500
  entropy T*S    EENTRO =        -0.01540395
  eigenvalues    EBANDS =      -937.61176920
  atomic energy  EATOM  =     10809.33661609
  Solvation  Ediel_sol  =         0.000000  -exchange      EXHF   =         0.00000000
  -V(xc)+E(xc)   XCENC  =       537.77085533
  PAW double cou  energy without entropy =     -189.02528047  e  entropy T*S    EENTRO =        -0.

-------------------------------------------------------------------------------------------------  Solvat
    PO     EDDAV:  cpu time      1.2220: real time      1.2286
       DOS:  cpu time      0.0005: real time      0     EDDAV:  cpu time      1.2540: real time      1.2589
       DOS:  cpu time      0.0004: real time      0.     EDDAV:  cpu time      1.2580: real time      1.2652
       DOS:  cpu time      0.0005: real time      0.0028
    CHARGE:  cpu time      0.0433: real time      0.0448
    MIXING:  cpu time      0.0060: real time      0.0080
    --------------------------------------------
      LOOP:  cpu time      1.4513: real time      1.4815

 eigenvalue-minimisations  :   272
 total energy-change (2. order) : 0.9660778E-02  (-0.4425902E-02)
 number of electron     160.0000203 magnetization 
 augmentation part       30.8008029 magnetization 

 Broyden mixing:
  rms(total) = 0.16379E+00    rms(broyden)= 0.16356E+00
  rms(prec ) = 0.19700E+00
  weight for this iteration     100.00

 eigenvalues of (default mixing * dielectric matrix)
  average eigenvalue GAMMA=   0.7255
  2.6575  1.1555  1.1555  0.8025  0.4762  0.4762  0.3660  0.0749  0.0455  0.0455

 Free energy of the ion-electron system (eV)
  ---------------------------------------------------
  alpha Z        PSCENC =       483.10018356
  Ewald energy   TEWEN  =     -7966.88980323
  -Hartree energ DENC   =     -2985.86235435
  -exchange      EXHF   =         0.00000000
  -V(xc)+E(xc)   XCENC  =       537.65704423
  PAW double counting   =      7312.44957921    -7438.78556424
  entropy T*S    EENTRO =        -0.01197572
  eigenv    CHARGE:  cpu time      0.0430: real time      0.0432
    MIXING:  cpu time      0.0064: real time      0.0091
    --------------------------------------------
      LOOP:  cpu time      1.4601: real time      1.4883

 eigenvalue-minimisations  :   280
 total energy-change (2. order) : 0.3456815E-02  (-0.2749925E-02)
 number of electron     160.0000204 magnetization 
 augmentation part       30.7671435 magnetizatio    PO     EDDAV:  cpu time      1.2451: real time      1.2496
       DOS:  cpu time      0.0004: real time      0     EDDAV:  cpu time      1.2941: real time      1.2992
       DOS:  cpu time      0.0004: real time      0.     EDDAV:  cpu time      1.2825: real time      1.2899
       DOS:  cpu time      0.0005: real time      0.0053
    CHARGE:  cpu time      0.0438: real time      0.0457
    MIXING:  cpu time      0.0065: real time      0.0076
    --------------------------------------------
      LOOP:  cpu time      1.4789: real time      1.4946

 eigenvalue-minimisations  :   280
 total energy-change (2. order) : 0.3456815E-02  (-0.2749925E-02)
 number of electron     160.0000204 magnetization 
 augmentation part       30.7671435 magnetization 

 Broyden mixing:
  rms(total) = 0.95245E-01    rms(broyden)= 0.95119E-01
  rms(prec ) = 0.11627E+00
  weight for this iteration     100.00

 eigenvalues of (default mixing * dielectric matrix)
  average eigenvalue GAMMA=   0.7884
  2.7565  1.5235  1.5235  0.7455  0.5726  0.5726  0.3670  0.4456  0.0749  0.0455
  0.0455

 Free energy of the ion-electron system (eV)
  ---------------------------------------------------
  alpha Z        PSCENC =       483.10018356
  Ewald energy   TEWEN  =     -7966.88980323
  -Hartree energ DENC   =     -2984.74636546
  -exchange      EXHF   =         0.00000000
  -V(xc)+E(xc)   XCENC  =       537.63707657
  PAW double counting   =      7311.03703073    -7437.65292078
  entropy T*S    EENTRO =        -0.01115500
  eigenvalues    EBANDS =      -940.83822931
  atomic energy  EAT    MIXING:  cpu time      0.0066: real time      0.0085
    --------------------------------------------
      LOOP:  cpu time      1.4699: real time      1.4963

 eigenvalue-minimisations  :   280
 total energy-change (2. order) :-0.4352883E-02  (-0.1156370E-02)
 number of electron     160.0000204 magnetization 
 augmentation part       30.7368182 magnetizatio    PO     EDDAV:  cpu time      1.2455: real time      1.2503
       DOS:  cpu time      0.0005: real time      0     EDDAV:  cpu time      1.2884: real time      1.2943
       DOS:  cpu time      0.0004: real time      0.     EDDAV:  cpu time      1.2939: real time      1.2987
       DOS:  cpu time      0.0005: real time      0.0054
    CHARGE:  cpu time      0.0499: real time      0.0501
    MIXING:  cpu time      0.0085: real time      0.0109
    --------------------------------------------
      LOOP:  cpu time      1.4978: real time      1.5215

 eigenvalue-minimisations  :   280
 total energy-change (2. order) :-0.4352883E-02  (-0.1156370E-02)
 number of electron     160.0000204 magnetization 
 augmentation part       30.7368182 magnetization 

 Broyden mixing:
  rms(total) = 0.55663E-01    rms(broyden)= 0.55557E-01
  rms(prec ) = 0.67896E-01
  weight for this iteration     100.00

 eigenvalues of (default mixing * dielectric matrix)
  average eigenvalue GAMMA=   0.8293
  2.7871  1.7592  1.7592  0.7069  0.7069  0.7473  0.3668  0.4760  0.4760  0.0749
  0.0455  0.0455

 Free energy of the ion-electron system (eV)
  ---------------------------------------------------
  alpha Z        PSCENC =       483.10018356
  Ewald energy   TEWEN  =     -7966.88980323
  -Hartree energ DENC   =     -2984.40903659
  -exchange      EXHF   =         0.00000000
  -V(xc)+E(xc)   XCENC  =       537.66128991
  PAW double counting   =      7308.50856077    -7435.24995295
  entropy T*S    EENTRO =        -0.00940653
  eigenvalues    EBANDS =      -941.08037074
  atomic energy  EATOM  =     10809.33661609
  Solvation  Ediel_sol  =         0.00000000
  ---------------------------------------------------
  free energy    TOTEN  =      -189.03191971 eV

  energy without entropy =     -189.02251318  energy(sigma->0) =     -189.02721644


--------------------------------------------------------------------------------------------------------




---     EDDAV:  cpu time      1.2484: real time      1.2533
       DOS:  cpu time      0.0005: real time      0     EDDAV:  cpu time      1.2854: real time      1.2906
       DOS:  cpu time      0.0003: real time      0.     EDDAV:  cpu time      1.3405: real time      1.3513
       DOS:  cpu time      0.0004: real time      0.0022
    CHARGE:  cpu time      0.0434: real time      0.0437
    MIXING:  cpu time      0.0067: real time      0.0068
    --------------------------------------------
      LOOP:  cpu time      1.5551: real time      1.6291

 eigenvalue-minimisations  :   280
 total energy-change (2. order) :-0.1873072E-02  (-0.4114466E-03)
 number of electron     160.0000205 magnetization 
 augmentation part       30.7296559 magnetization 

 Broyden mixing:
  rms(total) = 0.33136E-01    rms(broyden)= 0.33070E-01
  rms(prec ) = 0.45035E-01
  weight for this iteration     100.00

 eigenvalues of (default mixing * dielectric matrix)
  average eigenvalue GAMMA=   0.8826
  2.8330  2.0050  2.0050  0.8711  0.8711  0.8017  0.5628  0.5628  0.3668  0.4281
  0.0749  0.0455  0.0455

 Free energy of the ion-electron system (eV)
  ---------------------------------------------------
  alpha Z        PSCENC =       483.10018356
  Ewald energy   TEWEN  =     -7966.88980323
  -Hartree energ DENC   =     -2983.94925898
  -exchange      EXHF   =         0.00000000
  -V(xc)+E(xc)   XCENC  =       537.65904919
  PAW double counting   =      7304.37160046    -7431.12015758
  entropy T*S    EENTRO =        -0.00823084
  eigenvalues    EBANDS =      -941.53379145
  atomic energy  EATOM  =     10809.33661609
  Solvation  Ediel_sol  =         0.00000000
  ---------------------------------------------------
  free energy    TOTEN  =      -189.03379278 eV

  energy without entropy =     -189.02556194  energy(sigma->0) =     -189.02967736


--------------------------------------------------------------------------------------------------------




---     EDDAV:  cpu time      1.0406: real time      1.0447
       DOS:  cpu time      0.0003: real time      0     EDDAV:  cpu time      1.0657: real time      1.0724
       DOS:  cpu time      0.0004: real time      0.     EDDAV:  cpu time      1.0967: real time      1.1100
       DOS:  cpu time      0.0004: real time      0.0006
    CHARGE:  cpu time      0.0523: real time      0.0565
    MIXING:  cpu time      0.0093: real time      0.0125
    --------------------------------------------
      LOOP:  cpu time      1.3073: real time      1.3341

 eigenvalue-minimisations  :   224
 total energy-change (2. order) :-0.5368099E-03  (-0.8541590E-04)
 number of electron     160.0000205 magnetization 
 augmentation part       30.7344395 magnetization 

 Broyden mixing:
  rms(total) = 0.20469E-01    rms(broyden)= 0.20433E-01
  rms(prec ) = 0.31220E-01
  weight for this iteration     100.00

 eigenvalues of (default mixing * dielectric matrix)
  average eigenvalue GAMMA=   0.9125
  2.9180  2.0792  2.0792  1.1144  1.1144  0.7336  0.6235  0.6235  0.5282  0.3668
  0.4280  0.0749  0.0455  0.0455

 Free energy of the ion-electron system (eV)
  ---------------------------------------------------
  alpha Z        PSCENC =       483.10018356
  Ewald energy   TEWEN  =     -7966.88980323
  -Hartree energ DENC   =     -2983.83533033
  -exchange      EXHF   =         0.00000000
  -V(xc)+E(xc)   XCENC  =       537.67343069
  PAW double counting   =      7301.78473845    -7428.47731232
  entropy T*S    EENTRO =        -0.00704895
  eigenvalues    EBANDS =      -941.71980354
  atomic energy  EATOM  =     10809.33661609
  Solvation  Ediel_sol  =         0.00000000
  ---------------------------------------------------
  free energy    TOTEN  =      -189.03432959 eV

  energy without entropy =     -189.02728064  energy(sigma->0) =     -189.03080511


--------------------------------------------------------------------------------------------------------




--------------------------------------- Iteration      1(  20)  ---------------------------------------


    P      EDDAV:  cpu time      0.7669: real time      0.7728
       DOS:  cpu time      0.0004: real time      0     EDDAV:  cpu time      0.7332: real time      0.7366
       DOS:  cpu time      0.0003: real time      0.0014
    --------------------------------------------
      LOOP:  cpu time      0.8880: real time      0.9621

 eigenvalue-minimisations  :   144
 total energy-change (2. order) : 0.7971502E-04  (-0.1820775E-04)
 number of electron     160.0000205 magnetization 
 augmentation part       30.7344395 magnetization 

 Free energy of the ion-electron system (eV)
  ---------------------------------------------------
  alpha Z        PSCENC =       483.10018356
  Ewald energy   TEWEN  =     -7966.88980323
  -Hartree energ DENC   =     -2983.75822148
  -exchange      EXHF   =         0.00000000
  -V(xc)+E(xc)   XCENC  =       537.67560331
  PAW double counting   =      7301.14143017    -7427.82376293
  entropy T*S    EENTRO =        -0.00661761
  eigenvalues    EBANDS =      -941.80967775
  atomic energy  EATOM  =     10809.33661609
  Solvation  Ediel_sol  =         0.00000000
  ---------------------------------------------------
  free energy    TOTEN  =      -189.03424988 eV

  energy without entropy =     -189.02763226  energy(sigma->0) =     -189.03094107


--------------------------------------------------------------------------------------------------------




 average (electrostatic) potential at core
  the test charge radii are     0.7215  0.9587  0.8577  1.0103
  (the norm of the test charge is              1.0000)
       1 -72.4279       2 -72.6171       3 -72.6171       4 -72.4386       5 -72.3101
       6 -72.4237       7 -72.5986       8 -72.6197       9 -72.5983      10 -72.5980
      11 -72.3148      12 -72.3129      13 -72.3127      14 -72.4405      15 -72.6197
      16 -72.5984      17 -87.3416      18 -87.3405      19 -87.3555      20 -87.3539
      21 -15.7908      22 -15.7909      23 -15.7909      24 -15.7908      25 -45.1523
      26 -45.1512      27 -45.1174      28 -45.1142
 
 
 
 E-fermi :   4.1093     XC(G=0): -10.3063     alpha+bet :-10.7826

 Fermi energy:         4.1093265742

 k-point     1 :       0.0000    0.0000    0.0000
  band No.  band energies     occupation 
      1     -41.3339      2.00000
      2     -41.3338      2.00000
      3     -41.3255      2.00000
      4     -41.3254      2.00000
      5     -18.9246      2.00000
      6     -18.7824      2.00000
      7     -18.6893      2.00000
      8     -18.5975      2.00000
      9     -16.2706      2.00000
     10     -16.2696      2.00000
     11     -16.2260      2.00000
     12     -16.1974      2.00000
     13     -16.1840      2.00000
     14     -16.1662      2.00000
     15     -16.1660      2.00000
     16     -16.1209      2.00000
     17     -16.0596      2.00000
     18     -16.0297      2.00000
     19     -16.0079      2.00000
     20     -16.0000      2.00000
     21      -6.2103      2.00000
     22      -5.8114      2.00000
     23      -5.7708      2.00000
     24      -5.6430      2.00000
     25      -4.5744      2.00000
     26      -4.2268      2.00000
     27      -4.1794      2.00000
     28      -4.1048      2.00000
     29      -3.8014      2.00000
     30      -3.7025      2.00000
     31      -3.4812      2.00000
     32      -3.3430      2.00000
     33      -3.2843      2.00000
     34      -3.2480      2.00000
     35      -3.1514      2.00000
     36      -3.1439      2.00000
     37      -2.0351      2.00000
     38      -1.6710      2.00000
     39      -1.5496      2.00000
     40      -1.5154      2.00000
     41      -1.3579      2.00000
     42      -1.3573      2.00000
     43      -1.3495      2.00000
     44      -1.3013      2.00000
     45      -1.1897      2.00000
     46      -1.0253      2.00000
     47      -0.7992      2.00000
     48      -0.6666      2.00000
     49      -0.5728      2.00000
     50      -0.5532      2.00000
     51      -0.5025      2.00000
     52      -0.4826      2.00000
     53      -0.4429      2.00000
     54      -0.4023      2.00000
     55      -0.2083      2.00000
     56      -0.1914      2.00000
     57      -0.1628      2.00000
     58       0.0101      2.00000
     59       0.0147      2.00000
     60       0.0242      2.00000
     61       0.1793      2.00000
     62       0.2941      2.00000
     63       0.4076      2.00000
     64       0.4482      2.00000
     65       0.5859      2.00000
     66       0.7627      2.00000
     67       1.1147      2.00000
     68       1.2991      2.00000
     69       3.5150      2.00000
     70       3.5777      2.00000
     71       3.6395      2.00000
     72       3.7089      2.00000
     73       3.7129      2.00000
     74       3.7233      2.00000
     75       3.7436      2.00000
     76       3.7691      2.00000
     77       3.8656      1.99943
     78       3.8945      1.99761
     79       3.8985      1.99713
     80       3.9263      1.99036
     81       4.2971      0.00791
     82       4.2988      0.00736
     83       4.3730      0.00019
     84       4.5965      0.00000
     85       4.7522      0.00000
     86       4.7687      0.00000
     87       4.9106      0.00000
     88       4.9460      0.00000
     89       6.7211      0.00000
     90       8.5547      0.00000
     91       8.8797      0.00000
     92       9.6059      0.00000
     93       9.8719      0.00000
     94      10.3439      0.00000
     95      10.3651      0.00000
     96      10.3961      0.00000


--------------------------------------------------------------------------------------------------------


 soft charge-density along one line, spin component           1
         0         1         2         3         4         5         6         7         8         9
 total charge-density along one line
 
 pseudopotential strength for first ion, spin component:           1
 12.533  -0.321  -0.000   0.085  -0.009  -0.000  -0.005   0.000
 -0.321   0.078   0.000  -0.010   0.001  -0.000   0.002  -0.000
 -0.000   0.000  -8.738   0.000  -0.000  -0.146  -0.000   0.000
  0.085  -0.010   0.000  -8.875  -0.012  -0.000  -0.123   0.002
 -0.009   0.001  -0.000  -0.012  -8.763   0.000   0.002  -0.141
 -0.000  -0.000  -0.146  -0.000   0.000   0.264   0.000  -0.000
 -0.005   0.002  -0.000  -0.123   0.002   0.000   0.258  -0.001
  0.000  -0.000   0.000   0.002  -0.141  -0.000  -0.001   0.262
 total augmentation occupancy for first ion, spin component:           1
  1.844   0.200  -0.000   0.095  -0.026   0.000  -0.038  -0.000
  0.200   0.039   0.000  -0.115   0.011   0.000  -0.030   0.001
 -0.000   0.000   1.659  -0.000  -0.000   0.147   0.000  -0.000
  0.095  -0.115  -0.000   1.533  -0.035   0.000   0.235   0.003
 -0.026   0.011  -0.000  -0.035   1.573  -0.000   0.003   0.156
  0.000   0.000   0.147   0.000  -0.000   0.015   0.000  -0.000
 -0.038  -0.030   0.000   0.235   0.003   0.000   0.047   0.001
 -0.000   0.001  -0.000   0.003   0.156  -0.000   0.001   0.017


------------------------ aborting loop because EDIFF is reached ----------------------------------------


    C     FORNL :  cpu time      0.6357: real time      0.6386     FORCOR:  cpu time      0.1421: real time      0    FORNL :  cpu time      0.6317: real time      0.6335
    FORCOR:  cpu time      0.1432: real time      0.1459
    FORHAR:  cpu time      0.0695: real time      0.0727
    MIXING:  cpu time      0.0073: real time      0.0073
    OFIELD:  cpu time      0.0002: real time      0.0034

 VOLUME and BASIS-vectors are now :
 -----------------------------------------------------------------------------
  energy-cutoff  :      400.00
  volume of cell :      300.29
      direct lattice vectors                 reciprocal lattice vectors
    10.416082157  0.000000000  0.000000000     0.096005387  0.000000000  0.000000000
     0.000000000  6.069832095 -0.000000045     0.000000000  0.164749203  0.000000062
     0.000000000 -0.000001782  4.749618869     0.000000000  0.000000002  0.210543209

[...]
  Ewald energy   TEWEN  =     -7864.02548747
  -Hartree energ DENC   =     -3088.63076417
  -exchange      EXHF   =         0.00000000
  -V(xc)+E(xc)   XCENC  =       538.60421985
  PAW double counting   =      7341.96573329    -7469.18641688
  entropy T*S    EENTRO =        -0.00048262
  eigenvalues    EBANDS =      -940.35241433
  atomic energy  EATOM  =     10809.33661609
  Solvation  Ediel_sol  =         0.00000000
  ---------------------------------------------------
  free energy    TOTEN  =      -189.18881267 eV

  energy without entropy =     -189.18833005  energy(sigma->0) =     -189.18857136


--------------------------------------------------------------------------------------------------------




--------------------------------------- Iteration    137(   4)  ---------------------------------------


    POTLOK:  cpu time      0.0831: real time      0.0833
    SETDIJ:  cpu time      0.0157: real time      0.0156
     EDDAV:  cpu time      0.4354: real time      0.4361
       DOS:  cpu time      0.0002: real time      0.0002
    CHARGE:  cpu time      0.0244: real time      0.0245
    MIXING:  cpu time      0.0031: real time      0.0031
    --------------------------------------------
      LOOP:  cpu time      0.5620: real time      0.5628

 eigenvalue-minimisations  :   160
 total energy-change (2. order) : 0.9905314E-03  (-0.4643652E-04)
 number of electron     160.0000400 magnetization 
 augmentation part       30.7496473 magnetization 

 Broyden mixing:
  rms(total) = 0.75333E-02    rms(broyden)= 0.72556E-02
  rms(prec ) = 0.86607E-02
  weight for this iteration     100.00
  3.8846      2.00000
     72       3.8917      2.00000
     73       3.9248      2.00000
     74       4.0252      2.00000
     75       4.0461      2.00000
     76       4.0683      1.99999
     77       4.0896      1.99998
     78       4.0942      1.99997
     79       4.1122      1.99991
     80       4.1508      1.99923
     81       4.6243      0.00086
     82       4.6847      0.00003
     83       4.6855      0.00003
     84       4.8832      0.00000
     85       5.0584      0.00000
     86       5.0755      0.00000
     87       5.3828      0.00000
     88       5.4254      0.00000
     89       6.8363      0.00000
     90       8.6838      0.00000
     91       8.7891      0.00000
     92       9.4431      0.00000
     93      10.0748      0.00000
     94      10.1154      0.00000
     95      10.5063      0.00000
     96      10.6183      0.00000


--------------------------------------------------------------------------------------------------------


 soft charge-density along one line, spin component           1
         0         1         2         3         4         5         6         7         8         9
 total charge-density along one line
 
 pseudopotential strength for first ion, spin component:           1
 12.547  -0.323   0.000   0.086   0.000  -0.000  -0.005  -0.000
 -0.323   0.079  -0.000  -0.010   0.000   0.000   0.002  -0.000
  0.000  -0.000  -8.751   0.000   0.000  -0.143  -0.000  -0.000
  0.086  -0.010   0.000  -8.893  -0.025  -0.000  -0.120   0.004
  0.000   0.000   0.000  -0.025  -8.774  -0.000   0.004  -0.139
 -0.000   0.000  -0.143  -0.000  -0.000   0.263   0.000   0.000
 -0.005   0.002  -0.000  -0.120   0.004   0.000   0.257  -0.001
 -0.000  -0.000  -0.000   0.004  -0.139   0.000  -0.001   0.262
 total augmentation occupancy for first ion, spin    FORNL :  cpu time      0.4250: real time      0.4255
    FORCOR:  cpu time      0.1043: real time      0.1044
    FORHAR:  cpu time      0.0503: real time      0.0504
    MIXING:  cpu time      0.0035: real time      0.0035
    OFIELD:  cpu time      0.0000: real time      0.0000

 VOLUME and BASIS-vectors are now :
 -----------------------------------------------------------------------------
  energy-cutoff  :      400.00
  volume of cell :      300.29
      direct lattice vectors                 reciprocal lattice vectors
    10.416082157  0.000000000  0.000000000     0.096005387  0.000000000  0.000000000
     0.000000000  6.069832095 -0.000000045     0.000000000  0.164749203  0.000000062
     0.000000000 -0.000001782  4.749618869     0.00000    FORNL :  cpu time      0.4162: real time      0.4168
    FORCOR:  cpu time      0.1045: real time      0.2375
    FORHAR:  cpu time      0.0497: real time      0.0497
    MIXING:  cpu time      0.0037: real time      0.0037
    OFIELD:  cpu time      0.0001: real time      0.0001

 VOLUME and BASIS-vectors are now :
 -----------------------------------------------------------------------------
  energy-cutoff  :      400.00
  volume of cell :      300.29
      direct lattice vectors                 reciprocal lattice vectors
    10.416082157  0.000000000  0.000000000     0.096005387  0.000000000  0.000000000
     0.000000000  6.069832095 -0.000000045     0.000000000  0.164749203  0.000000062
     0.000000000 -0.000001782  4.749618869     0.000000000  0.000000002  0.210543209

  length of vectors
    10.416082157  6.069832095  4.749618869     0.096005387  0.164749203  0.210543209


 FORCES acting on ions
    electron-ion (+dipol)            ewald-force                    non-local-force                 convergence-correction
 -----------------------------------------------------------------------------------------------
   0.469E+02 -.147E-03 -.810E+02   -.469E+02 0.585E-03 0.116E+03   -.584E+00 -.530E-04 -.345E+02   -.218E-02 -.374E-03 -.319E-02
   0.152E+02 0.126E+03 -.386E+02   -.263E+02 -.154E+03 0.538E+02   0.102E+02 0.271E+02 -.150E+02   0.129E-01 -.445E-01 -.242E-01
   0.152E+02 -.126E+03 -.386E+02   -.263E+02 0.154E+03 0.538E+02   0.102E+02 -.271E+02 -.150E+02   0.127E-01 0.440E-01 -.253E-01
   -.468E+02 0.116E-02 0.810E+02   0.467E+02 -.110E-02 -.116E+03   0.572E+00 0.219E-03 0.345E+02   0.363E-01 -.190E-03 0.370E-01
   -.808E+02 -.550E-04 -.723E+02   0.106E+03 0.195E-04 0.866E+02   -.256E+02 -.311E-03 -.142E+02   0.308E-01 0.333E-03 -.101E-02
   -.469E+02 -.338E-03 -.810E+02   0.469E+02 -.251E-03 0.116E+03   0.588E+00 0.118E-03 -.345E+02   -.487E-02 0.442E-03 -.154E-01
   -.151E+02 0.126E+03 0.386E+02   0.261E+02 -.154E+03 -.538E+02   -.101E+02 0.271E+02 0.150E+02   0.693E-02 -.484E-02 -.149E-01
   -.151E+02 -.126E+03 -.386E+02   0.262E+02 0.154E+03 0.538E+02   -.101E+02 -.271E+02 -.150E+02   0.101E-01 -.647E-01 0.181E-01
   0.150E+02 0.126E+03 0.386E+02   -.261E+02 -.154E+03 -.538E+02   0.101E+02 0.271E+02 0.150E+02   -.112E-01 -.186E-01 -.576E-02
   0.150E+02 -.126E+03 0.386E+02   -.261E+02 0.154E+03 -.538E+02   0.101E+02 -.271E+02 0.150E+02   -.117E-01 0.189E-01 -.573E-02
   0.810E+02 -.146E-02 0.723E+02   -.106E+03 0.121E-02 -.866E+02   0.256E+02 0.237E-03 0.142E+02   -.714E-01 0.782E-04 0.714E-02
   0.809E+02 0.496E-03 -.723E+02   -.106E+03 -.184E-03 0.866E+02   0.256E+02 -.801E-04 -.142E+02   -.207E-01 -.234E-03 -.527E-02
   -.809E+02 -.480E-03 0.723E+02   0.106E+03 0.728E-03 -.865E+02   -.256E+02 0.805E-05 0.142E+02   0.967E-02 -.228E-03 -.602E-02
   0.467E+02 -.992E-04 0.811E+02   -.467E+02 -.437E-04 -.116E+03   -.579E+00 -.173E-03 0.345E+02   0.269E-01 0.277E-03 -.307E-01
   -.151E+02 0.126E+03 -.386E+02   0.262E+02 -.154E+03 0.538E+02   -.101E+02 0.271E+02 -.150E+02   0.100E-01 0.651E-01 0.176E-01
   -.151E+02 -.126E+03 0.386E+02   0.261E+02 0.154E+03 -.538E+02   -.101E+02 -.271E+02 0.150E+02   0.663E-02 0.441E-02 -.147E-01
   0.231E+02 -.122E-02 -.401E+02   -.227E+02 0.143E-02 0.410E+02   -.120E+01 0.471E-03 -.989E+00   0.260E-02 -.612E-03 -.290E-01
   -.231E+02 -.210E-02 -.401E+02   0.228E+02 0.177E-02 0.410E+02   0.120E+01 0.206E-03 -.984E+00   -.980E-02 0.340E-03 -.280E-01
   0.230E+02 0.718E-05 0.402E+02   -.227E+02 -.139E-04 -.411E+02   -.120E+01 -.995E-04 0.102E+01   0.646E-02 0.227E-03 -.245E-01
   -.230E+02 0.678E-03 0.402E+02   0.226E+02 -.343E-03 -.410E+02   0.118E+01 0.885E-03 0.997E+00   0.253E-01 -.105E-02 0.414E-02
   0.395E-01 -.217E-01 -.181E-01   -.424E-01 0.159E-01 0.162E-01   -.747E-03 0.142E-02 -.713E-03   0.342E-02 0.418E-02 0.278E-02
   -.462E-01 0.708E-02 -.666E-02   0.443E-01 0.179E-03 0.171E-02   0.212E-03 0.296E-02 -.770E-03   0.127E-02 -.105E-01 0.481E-02
   -.456E-01 -.668E-02 -.727E-02   0.439E-01 -.589E-03 0.235E-02   0.455E-03 -.291E-02 -.593E-03   0.872E-03 0.104E-01 0.463E-02
   0.409E-01 0.225E-01 -.202E-01   -.433E-01 -.167E-01 0.183E-01   -.493E-03 -.164E-02 -.860E-03   0.273E-02 -.407E-02 0.298E-02
   -.562E+02 -.285E-04 -.422E+02   0.571E+02 -.775E-03 0.419E+02   -.109E+01 -.188E-03 0.115E+01   0.623E-02 0.104E-02 0.565E-02
   0.563E+02 0.783E-03 -.421E+02   -.572E+02 0.306E-05 0.419E+02   0.110E+01 0.112E-03 0.115E+01   -.236E-01 -.866E-03 -.160E-01
   -.564E+02 0.942E-03 0.421E+02   0.573E+02 -.233E-03 -.419E+02   -.109E+01 0.738E-04 -.115E+01   0.592E-02 -.853E-03 0.755E-02
   0.562E+02 -.512E-03 0.421E+02   -.571E+02 -.113E-03 -.418E+02   0.110E+01 -.154E-03 -.115E+01   -.266E-01 0.815E-03 0.150E-01
 -----------------------------------------------------------------------------------------------
   -.525E-01 -.304E-04 0.995E-01   -.142E-13 0.359E-13 -.711E-13   0.165E-01 0.109E-02 0.234E-01   0.356E-01 -.110E-02 -.122E+00
 
 
 POSITION                                       TOTAL-FORCE (eV/Angst)
 -----------------------------------------------------------------------------------
      1.17265      1.51746      3.56428        -0.555615      0.000011      0.591253
      8.71102      3.33707      3.40515        -0.944660     -1.529006      0.185019
      8.71103      5.76768      3.40515        -0.944578      1.528774      0.184850
      9.24387      4.55237      1.18523         0.548971      0.000094     -0.593800
      0.44517      4.55237      3.23483        -0.155384     -0.000013      0.039710
      4.03529      4.55237      1.18958         0.558695     -0.000029      0.589349
      1.70529      0.30204      1.34436         0.940374     -1.531872     -0.184437
      6.91308      2.73269      1.03045         0.947878      1.538867      0.185964
      3.50262      3.33703      3.71926        -0.939424     -1.533520     -0.183014
      3.50262      5.76772      3.71927        -0.939225      1.533225     -0.182894
      9.97120      1.51745      1.51474         0.154522      0.000071     -0.040108
      4.76300      1.51746      0.86016         0.150558     -0.000002      0.040199
      5.65295      4.55237      3.88992        -0.146222      0.000028     -0.038073
      6.38043      1.51746      3.56019        -0.555288     -0.000039     -0.595543
      6.91308      0.30222      1.03044         0.947971     -1.538919      0.186010
      1.70529      2.73286      1.34435         0.940235      1.531703     -0.184259
      1.02695      1.51746      2.05334        -0.887289      0.000071     -0.146592
      4.18108      4.55237      4.42823         0.883831      0.000208     -0.140025
      6.23480      1.51746      0.32163        -0.892282      0.000121      0.141507
      9.38935      4.55237      2.69622         0.888239      0.000175      0.145281
      0.00017      6.06982      4.74941        -0.000226     -0.000193      0.000117
      5.20798      3.03513      2.37491        -0.000386     -0.000257     -0.000908
      5.20798      6.06962      2.37490        -0.000368      0.000267     -0.000883
      0.00019      3.03494      4.74939        -0.000153      0.000146      0.000164
      8.08270      1.51746      2.28002        -0.160918      0.000048      0.889866
      7.54170      4.55237      4.65503         0.157860      0.000032      0.884794
      2.87433      1.51746      0.09465        -0.157275     -0.000070     -0.886213
      2.33341      4.55238      2.46936         0.159804      0.000036     -0.886963
 -----------------------------------------------------------------------------------
    total drift:                               -0.000355     -0.000044      0.000372


--------------------------------------------------------------------------------------------------------



  FREE ENERGIE OF THE ION-ELECTRON SYSTEM (eV)
  ---------------------------------------------------
  free  energy   TOTEN  =      -189.10665917 eV

  energy  without entropy=     -189.10617951  energy(sigma->0) =     -189.10641934
 
 d Force = 0.7557150E-01[ 0.687E-01, 0.824E-01]  d Energy = 0.7559881E-01-0.273E-04
 d Force = 0.8791865E+01[ 0.870E+01, 0.888E+01]  d Ewald  = 0.8791925E+01-0.604E-04


--------------------------------------------------------------------------------------------------------


    POTLOK:  cpu time      0.1022: real time      0.1023


--------------------------------------------------------------------------------------------------------


           RANDOM_SEED =         572898883                0                0
   IONSTEP:  cpu time      0.0003: real time      0.0003

  ENERGY OF THE ELECTRON-ION-THERMOSTAT SYSTEM (eV)
  ---------------------------------------------------
% ion-electron   TOTEN  =      -189.106659  see above
  kinetic energy EKIN   =         0.580648
  kin. lattice  EKIN_LAT=         0.000000  (temperature  166.37 K)
  nose potential ES     =        -0.603199
  nose kinetic   EPS    =         0.093410
  ---------------------------------------------------
  total energy   ETOTAL =      -189.035800 eV

  maximum distance moved by ions :      0.13E-02

 Prediction of Wavefunctions ALPHA= 1.954 BETA=-0.951
    WAVPRE:  cpu time      0.0909: real time      0.0916
    FEWALD:  cpu time      0.0019: real time      0.0018
    ORTHCH:  cpu time      0.0648: real time      0.0650
     LOOP+:  cpu time      4.9760: real time      5.1339


--------------------------------------- Iteration    137(   1)  ---------------------------------------


    POTLOK:  cpu time      0.0862: real time      0.0865
    SETDIJ:  cpu time      0.0158: real time      0.0158
     EDDAV:  cpu time      0.7860: real time      0.7879
       DOS:  cpu time      0.0002: real time      0.0002
    CHARGE:  cpu time      0.0257: real time      0.0257
    MIXING:  cpu time      0.0030: real time      0.0030
    --------------------------------------------
      LOOP:  cpu time      0.9169: real time      0.9192

 eigenvalue-minimisations  :   312
 total energy-change (2. order) :-0.8055875E-01  (-0.3683202E-03)
 number of electron     160.0000400 magnetization 
 augmentation part       30.7512350 magnetization 

 Broyden mixing:
  rms(total) = 0.16696E-01    rms(broyden)= 0.16614E-01
  rms(prec ) = 0.19985E-01
  weight for this iteration     100.00

 Free energy of the ion-electron system (eV)
  ---------------------------------------------------
  alpha Z        PSCENC =       483.10018356
  Ewald energy   TEWEN  =     -7864.02548747
  -Hartree energ DENC   =     -3088.65885368
  -exchange      EXHF   =         0.00000000
  -V(xc)+E(xc)   XCENC  =       538.60733693
  PAW double counting   =      7341.94146677    -7469.15859691
  entropy T*S    EENTRO =        -0.00046858
  eigenvalues    EBANDS =      -940.32946454
  atomic energy  EATOM  =     10809.33661609
  Solvation  Ediel_sol  =         0.00000000
  ---------------------------------------------------
  free energy    TOTEN  =      -189.18726783 eV

  energy without entropy =     -189.18679926  energy(sigma->0) =     -189.18703354


--------------------------------------------------------------------------------------------------------




--------------------------------------- Iteration    137(   2)  ---------------------------------------


    POTLOK:  cpu time      0.0841: real time      0.0842
    SETDIJ:  cpu time      0.0154: real time      0.0155
     EDDAV:  cpu time      0.7147: real time      0.7164
       DOS:  cpu time      0.0002: real time      0.0002
    CHARGE:  cpu time      0.0259: real time      0.0259
    MIXING:  cpu time      0.0031: real time      0.0031
    --------------------------------------------
      LOOP:  cpu time      0.8434: real time      0.8453

 eigenvalue-minimisations  :   280
 total energy-change (2. order) :-0.9436404E-03  (-0.1145394E-02)
 number of electron     160.0000400 magnetization 
 augmentation part       30.7485501 magnetization 

 Broyden mixing:
  rms(total) = 0.24095E-01    rms(broyden)= 0.24049E-01
  rms(prec ) = 0.34472E-01
  weight for this iteration     100.00

 eigenvalues of (default mixing * dielectric matrix)
  average eigenvalue GAMMA=   0.3764
  0.3764

 Free energy of the ion-electron system (eV)
  ---------------------------------------------------
  alpha Z        PSCENC =       483.10018356
  Ewald energy   TEWEN  =     -7864.02548747
  -Hartree energ DENC   =     -3088.63228590
  -exchange      EXHF   =         0.00000000
  -V(xc)+E(xc)   XCENC  =       538.60413121
  PAW double counting   =      7341.97195533    -7469.19580632
  entropy T*S    EENTRO =        -0.00047129
  eigenvalues    EBANDS =      -940.34704668
  atomic energy  EATOM  =     10809.33661609
  Solvation  Ediel_sol  =         0.00000000
  ---------------------------------------------------
  free energy    TOTEN  =      -189.18821147 eV

  energy without entropy =     -189.18774018  energy(sigma->0) =     -189.18797583


--------------------------------------------------------------------------------------------------------




--------------------------------------- Iteration    137(   3)  ---------------------------------------


    POTLOK:  cpu time      0.0839: real time      0.0845
    SETDIJ:  cpu time      0.0155: real time      0.0155
     EDDAV:  cpu time      0.6797: real time      0.6811
       DOS:  cpu time      0.0002: real time      0.0002
    CHARGE:  cpu time      0.0258: real time      0.0259
    MIXING:  cpu time      0.0032: real time      0.0032
    --------------------------------------------
      LOOP:  cpu time      0.8084: real time      0.8104

 eigenvalue-minimisations  :   264
 total energy-change (2. order) :-0.6012023E-03  (-0.1585438E-03)
 number of electron     160.0000400 magnetization 
 augmentation part       30.7492135 magnetization 

 Broyden mixing:
  rms(total) = 0.42962E-01    rms(broyden)= 0.42887E-01
  rms(prec ) = 0.62445E-01
  weight for this iteration     100.00

 eigenvalues of (default mixing * dielectric matrix)
  average eigenvalue GAMMA=   0.3647
  0.6218  0.1076

 Free energy of the ion-electron system (eV)
  ---------------------------------------------------
  alpha Z        PSCENC =       483.10018356
  Ewald energy   TEWEN  =     -7864.02548747
  -Hartree energ DENC   =     -3088.63076417
  -exchange      EXHF   =         0.00000000
  -V(xc)+E(xc)   XCENC  =       538.60421985
  PAW double counting   =      7341.96573329    -7469.18641688
  entropy T*S    EENTRO =        -0.00048262
  eigenvalues    EBANDS =      -940.35241433
  atomic energy  EATOM  =     10809.33661609
  Solvation  Ediel_sol  =         0.00000000
  ---------------------------------------------------
  free energy    TOTEN  =      -189.18881267 eV

  energy without entropy =     -189.18833005  energy(sigma->0) =     -189.18857136


--------------------------------------------------------------------------------------------------------




--------------------------------------- Iteration    137(   4)  ---------------------------------------


    POTLOK:  cpu time      0.0842: real time      0.0843
    SETDIJ:  cpu time      0.0155: real time      0.0155
     EDDAV:  cpu time      0.4634: real time      0.4646
       DOS:  cpu time      0.0002: real time      0.0002
    CHARGE:  cpu time      0.0259: real time      0.0259
    MIXING:  cpu time      0.0033: real time      0.0033
    --------------------------------------------
      LOOP:  cpu time      0.5926: real time      0.5940

 eigenvalue-minimisations  :   160
 total energy-change (2. order) : 0.9905314E-03  (-0.4643652E-04)
 number of electron     160.0000400 magnetization 
 augmentation part       30.7496473 magnetization 

 Broyden mixing:
  rms(total) = 0.75333E-02    rms(broyden)= 0.72556E-02
  rms(prec ) = 0.86607E-02
  weight for this iteration     100.00
