<?xml version="1.0" encoding="ISO-8859-1"?>
<modeling>
 <generator>
  <i name="program" type="string">vasp </i>
  <i name="version" type="string">6.3.2  </i>
  <i name="subversion" type="string">27Jun22 (build May 08 2025 20:43:02) complex                          parallel </i>
  <i name="platform" type="string">LinuxIFC </i>
  <i name="date" type="string">2025 08 22 </i>
  <i name="time" type="string">00:44:18 </i>
 </generator>
 <incar>
  <i type="string" name="SYSTEM">MD-OXC</i>
  <i type="string" name="PREC">Normal</i>
  <i type="int" name="IBRION">     0</i>
  <i type="int" name="NSW">   500</i>
  <i type="int" name="ISYM">     0</i>
  <i type="int" name="NBLOCK">     1</i>
  <i name="POTIM">      1.00000000</i>
  <i name="TEBEG">    300.00000000</i>
  <i name="TEEND">    300.00000000</i>
  <i name="SMASS">      0.00000000</i>
  <i type="int" name="ISMEAR">     0</i>
  <i name="SIGMA">      0.10000000</i>
  <i type="logical" name="LWAVE"> F  </i>
  <i type="logical" name="LCHARG"> F  </i>
  <i type="int" name="MDALGO">     2</i>
 </incar>
 <primitive_cell>
  <structure name="primitive_cell" >
   <crystal>
    <varray name="basis" >
     <v>      10.41608216       0.00000000       0.00000000 </v>
     <v>       0.00000000       6.06983209      -0.00000005 </v>
     <v>       0.00000000      -0.00000178       4.74961887 </v>
    </varray>
    <i name="volume">    300.28928487 </i>
    <varray name="rec_basis" >
     <v>       0.09600539       0.00000000       0.00000000 </v>
     <v>       0.00000000       0.16474920       0.00000006 </v>
     <v>       0.00000000       0.00000000       0.21054321 </v>
    </varray>
   </crystal>
   <varray name="positions" >
    <v>       0.09601913       0.25000000       0.74163265 </v>
    <v>       0.83477364       0.54656912       0.71470121 </v>
    <v>       0.83477364       0.95343188       0.71470121 </v>
    <v>       0.90398187       0.75000000       0.25836835 </v>
    <v>       0.04376453       0.75000000       0.70782547 </v>
    <v>       0.40398087       0.75000000       0.24163165 </v>
    <v>       0.16522636       0.04656912       0.28529979 </v>
    <v>       0.66522636       0.45343088       0.21470021 </v>
    <v>       0.33477364       0.54656912       0.78529979 </v>
    <v>       0.33477364       0.95343188       0.78529979 </v>
    <v>       0.95623547       0.25000000       0.29217553 </v>
    <v>       0.45623547       0.25000000       0.20782447 </v>
    <v>       0.54376453       0.75000000       0.79217653 </v>
    <v>       0.59601913       0.25000000       0.75836935 </v>
    <v>       0.66522636       0.04656912       0.21470021 </v>
    <v>       0.16522636       0.45343088       0.28529979 </v>
    <v>       0.09398981       0.25000000       0.41808798 </v>
    <v>       0.40601019       0.75000000       0.91808898 </v>
    <v>       0.59398981       0.25000000       0.08191002 </v>
    <v>       0.90601019       0.75000000       0.58191102 </v>
    <v>       0.00000000       0.00000000       0.00000000 </v>
    <v>       0.50000000       0.50000000       0.50000000 </v>
    <v>       0.50000000       0.00000000       0.50000000 </v>
    <v>       0.00000000       0.50000000       0.00000000 </v>
    <v>       0.78089765       0.25000000       0.52546944 </v>
    <v>       0.71910235       0.75000000       0.02547144 </v>
    <v>       0.28089765       0.25000000       0.97452956 </v>
    <v>       0.21910235       0.75000000       0.47452956 </v>
   </varray>
  </structure>
  <varray name="primitive_index" >
   <v type="int" >        1 </v>
   <v type="int" >        2 </v>
   <v type="int" >        3 </v>
   <v type="int" >        4 </v>
   <v type="int" >        5 </v>
   <v type="int" >        6 </v>
   <v type="int" >        7 </v>
   <v type="int" >        8 </v>
   <v type="int" >        9 </v>
   <v type="int" >       10 </v>
   <v type="int" >       11 </v>
   <v type="int" >       12 </v>
   <v type="int" >       13 </v>
   <v type="int" >       14 </v>
   <v type="int" >       15 </v>
   <v type="int" >       16 </v>
   <v type="int" >       17 </v>
   <v type="int" >       18 </v>
   <v type="int" >       19 </v>
   <v type="int" >       20 </v>
   <v type="int" >       21 </v>
   <v type="int" >       22 </v>
   <v type="int" >       23 </v>
   <v type="int" >       24 </v>
   <v type="int" >       25 </v>
   <v type="int" >       26 </v>
   <v type="int" >       27 </v>
   <v type="int" >       28 </v>
  </varray>
 </primitive_cell>
 <kpoints>
  <generation param="Gamma">
   <v type="int" name="divisions">       1        1        1 </v>
   <v name="usershift">      0.00000000       0.00000000       0.00000000 </v>
   <v name="genvec1">      1.00000000       0.00000000       0.00000000 </v>
   <v name="genvec2">      0.00000000       1.00000000       0.00000000 </v>
   <v name="genvec3">      0.00000000       0.00000000       1.00000000 </v>
   <v name="shift">      0.00000000       0.00000000       0.00000000 </v>
  </generation>
  <varray name="kpointlist" >
   <v>       0.00000000       0.00000000       0.00000000 </v>
  </varray>
  <varray name="weights" >
   <v>       1.00000000 </v>
  </varray>
 </kpoints>
 <parameters>
  <separator name="general" >
   <i type="string" name="SYSTEM">MD-OXC</i>
   <i type="logical" name="LCOMPAT"> F  </i>
  </separator>
  <separator name="electronic" >
   <i type="string" name="PREC">normal</i>
   <i name="ENMAX">    400.00000000</i>
   <i name="ENAUG">    605.39200000</i>
   <i name="EDIFF">      0.00010000</i>
   <i type="int" name="IALGO">    38</i>
   <i type="int" name="IWAVPR">    12</i>
   <i type="int" name="NBANDS">    96</i>
   <i type="int" name="NBANDSLOW">    -1</i>
   <i type="int" name="NBANDSHIGH">    -1</i>
   <i name="NELECT">    160.00000000</i>
   <i type="int" name="TURBO">     0</i>
   <i type="int" name="IRESTART">     0</i>
   <i type="int" name="NREBOOT">     0</i>
   <i type="int" name="NMIN">     0</i>
   <i name="EREF">      0.00000000</i>
   <separator name="electronic smearing" >
    <i type="int" name="ISMEAR">     0</i>
    <i name="SIGMA">      0.10000000</i>
    <i name="KSPACING">      0.50000000</i>
    <i type="logical" name="KGAMMA"> T  </i>
    <i type="logical" name="KBLOWUP"> T  </i>
   </separator>
   <separator name="electronic projectors" >
    <i type="logical" name="LREAL"> F  </i>
    <v name="ROPT">      0.00000000      0.00000000      0.00000000      0.00000000</v>
    <i type="int" name="LMAXPAW">  -100</i>
    <i type="int" name="LMAXMIX">     2</i>
    <i type="logical" name="NLSPLINE"> F  </i>
   </separator>
   <separator name="electronic startup" >
    <i type="int" name="ISTART">     0</i>
    <i type="int" name="ICHARG">     2</i>
    <i type="int" name="INIWAV">     1</i>
   </separator>
   <separator name="electronic spin" >
    <i type="int" name="ISPIN">     1</i>
    <i type="logical" name="LNONCOLLINEAR"> F  </i>
    <v name="MAGMOM">      1.00000000      1.00000000      1.00000000      1.00000000      1.00000000      1.00000000      1.00000000      1.00000000      1.00000000      1.00000000      1.00000000      1.00000000      1.00000000      1.00000000      1.00000000      1.00000000      1.00000000      1.00000000      1.00000000      1.00000000
      1.00000000      1.00000000      1.00000000      1.00000000      1.00000000      1.00000000      1.00000000      1.00000000</v>
    <i name="NUPDOWN">     -1.00000000</i>
    <i type="logical" name="LSORBIT"> F  </i>
    <v name="SAXIS">      0.00000000      0.00000000      1.00000000</v>
    <i type="logical" name="LSPIRAL"> F  </i>
    <v name="QSPIRAL">      0.00000000      0.00000000      0.00000000</v>
    <i type="logical" name="LZEROZ"> F  </i>
   </separator>
   <separator name="electronic exchange-correlation" >
    <i type="logical" name="LASPH"> F  </i>
    <i type="logical" name="LMETAGGA"> F  </i>
   </separator>
   <separator name="electronic convergence" >
    <i type="int" name="NELM">    60</i>
    <i type="int" name="NELMDL">     0</i>
    <i type="int" name="NELMIN">     2</i>
    <i name="ENINI">    400.00000000</i>
    <separator name="electronic convergence detail" >
     <i type="logical" name="LDIAG"> T  </i>
     <i type="logical" name="LSUBROT"> F  </i>
     <i name="WEIMIN">      0.00100000</i>
     <i name="EBREAK">      0.00000026</i>
     <i name="DEPER">      0.30000000</i>
     <i type="int" name="NRMM">     4</i>
     <i name="TIME">      0.40000000</i>
    </separator>
   </separator>
   <separator name="electronic mixer" >
    <i name="AMIX">      0.40000000</i>
    <i name="BMIX">      1.00000000</i>
    <i name="AMIN">      0.10000000</i>
    <i name="AMIX_MAG">      1.60000000</i>
    <i name="BMIX_MAG">      1.00000000</i>
    <separator name="electronic mixer details" >
     <i type="int" name="IMIX">     4</i>
     <i type="logical" name="MIXFIRST"> F  </i>
     <i type="int" name="MAXMIX">   -45</i>
     <i name="WC">    100.00000000</i>
     <i type="int" name="INIMIX">     1</i>
     <i type="int" name="MIXPRE">     1</i>
     <i type="int" name="MREMOVE">     5</i>
    </separator>
   </separator>
   <separator name="electronic dipolcorrection" >
    <i type="logical" name="LDIPOL"> F  </i>
    <i type="logical" name="LMONO"> F  </i>
    <i type="int" name="IDIPOL">     0</i>
    <i name="EPSILON">      1.00000000</i>
    <v name="DIPOL">   -100.00000000   -100.00000000   -100.00000000</v>
    <i name="EFIELD">      0.00000000</i>
   </separator>
  </separator>
  <separator name="grids" >
   <i type="int" name="NGX">    54</i>
   <i type="int" name="NGY">    30</i>
   <i type="int" name="NGZ">    24</i>
   <i type="int" name="NGXF">   108</i>
   <i type="int" name="NGYF">    60</i>
   <i type="int" name="NGZF">    48</i>
   <i type="logical" name="ADDGRID"> F  </i>
  </separator>
  <separator name="ionic" >
   <i type="int" name="NSW">   500</i>
   <i type="int" name="IBRION">     0</i>
   <i type="int" name="MDALGO">     2</i>
   <i type="int" name="ISIF">     0</i>
   <i name="PSTRESS">      0.00000000</i>
   <i name="EDIFFG">      0.00100000</i>
   <i type="int" name="NFREE">     0</i>
   <i name="POTIM">      1.00000000</i>
   <i name="SMASS">      0.01509470</i>
   <i name="SCALEE">      1.00000000</i>
  </separator>
  <separator name="ionic md" >
   <i name="TEBEG">    300.00000000</i>
   <i name="TEEND">    300.00000000</i>
   <i type="int" name="NBLOCK">     1</i>
   <i type="int" name="KBLOCK">   500</i>
   <i type="int" name="NPACO">   256</i>
   <i name="APACO">     10.00000000</i>
  </separator>
  <separator name="symmetry" >
   <i type="int" name="ISYM">     0</i>
   <i name="SYMPREC">      0.00001000</i>
  </separator>
  <separator name="dos" >
   <i type="int" name="LORBIT">     0</i>
   <v name="RWIGS">     -1.00000000     -1.00000000     -1.00000000     -1.00000000</v>
   <i type="int" name="NEDOS">   301</i>
   <i name="EMIN">     10.00000000</i>
   <i name="EMAX">    -10.00000000</i>
   <i name="EFERMI">      0.00000000</i>
  </separator>
  <separator name="writing" >
   <i type="int" name="NWRITE">     2</i>
   <i type="logical" name="LWAVE"> F  </i>
   <i type="logical" name="LDOWNSAMPLE"> F  </i>
   <i type="logical" name="LCHARG"> F  </i>
   <i type="logical" name="LPARD"> F  </i>
   <i type="logical" name="LVTOT"> F  </i>
   <i type="logical" name="LVHAR"> F  </i>
   <i type="logical" name="LELF"> F  </i>
   <i type="logical" name="LOPTICS"> F  </i>
   <v name="STM">      0.00000000      0.00000000      0.00000000      0.00000000      0.00000000      0.00000000      0.00000000</v>
  </separator>
  <separator name="performance" >
   <i type="int" name="NPAR">     1</i>
   <i type="int" name="NSIM">     4</i>
   <i type="int" name="NBLK">    -1</i>
   <i type="logical" name="LPLANE"> T  </i>
   <i type="logical" name="LSCALAPACK"> T  </i>
   <i type="logical" name="LSCAAWARE"> F  </i>
   <i type="logical" name="LSCALU"> F  </i>
   <i type="logical" name="LASYNC"> F  </i>
   <i type="logical" name="LORBITALREAL"> F  </i>
  </separator>
  <separator name="miscellaneous" >
   <i type="int" name="IDIOT">     3</i>
   <i type="int" name="PHON_NSTRUCT">    -1</i>
   <i type="logical" name="LMUSIC"> F  </i>
   <v name="POMASS">     16.00000000     30.97400000      7.01000000     55.84700000</v>
   <v name="DARWINR">      0.00000000      0.00000000      0.00000000      0.00000000</v>
   <v name="DARWINV">      1.00000000      1.00000000      1.00000000      1.00000000</v>
   <i type="logical" name="LCORR"> T  </i>
  </separator>
  <i type="logical" name="GGA_COMPAT"> T  </i>
  <i type="logical" name="LBERRY"> F  </i>
  <i type="int" name="ICORELEVEL">     0</i>
  <i type="logical" name="LDAU"> F  </i>
  <i type="int" name="I_CONSTRAINED_M">     0</i>
  <separator name="electronic exchange-correlation" >
   <i type="string" name="GGA">--</i>
   <i type="int" name="VOSKOWN">     0</i>
   <i type="logical" name="LHFCALC"> F  </i>
   <i type="string" name="PRECFOCK"></i>
   <i type="logical" name="LSYMGRAD"> F  </i>
   <i type="logical" name="LHFONE"> F  </i>
   <i type="logical" name="LRHFCALC"> F  </i>
   <i type="logical" name="LTHOMAS"> F  </i>
   <i type="logical" name="LMODELHF"> F  </i>
   <i type="logical" name="LFOCKACE"> F  </i>
   <i name="ENCUT4O">     -1.00000000</i>
   <i type="int" name="EXXOEP">     0</i>
   <i type="int" name="FOURORBIT">     0</i>
   <i name="AEXX">      0.00000000</i>
   <i name="HFALPHA">      0.00000000</i>
   <i name="MCALPHA">      0.00000000</i>
   <i name="ALDAX">      1.00000000</i>
   <i name="AGGAX">      1.00000000</i>
   <i name="ALDAC">      1.00000000</i>
   <i name="AGGAC">      1.00000000</i>
   <i type="int" name="NKREDX">     1</i>
   <i type="int" name="NKREDY">     1</i>
   <i type="int" name="NKREDZ">     1</i>
   <i type="logical" name="SHIFTRED"> F  </i>
   <i type="logical" name="ODDONLY"> F  </i>
   <i type="logical" name="EVENONLY"> F  </i>
   <i type="int" name="LMAXFOCK">     0</i>
   <i type="int" name="NMAXFOCKAE">     0</i>
   <i type="logical" name="LFOCKAEDFT"> F  </i>
   <i name="HFSCREEN">      0.00000000</i>
   <i name="HFSCREENC">      0.00000000</i>
   <i type="int" name="NBANDSGWLOW">     0</i>
  </separator>
  <separator name="vdW DFT" >
   <i type="logical" name="LUSE_VDW"> F  </i>
   <i name="Zab_VDW">     -0.84910000</i>
   <i name="PARAM1">      0.12340000</i>
   <i name="PARAM2">      1.00000000</i>
   <i name="PARAM3">      0.00000000</i>
  </separator>
  <separator name="model GW" >
   <i type="int" name="MODEL_GW">     0</i>
   <i name="MODEL_EPS0">      6.43477039</i>
   <i name="MODEL_ALPHA">      1.00000000</i>
  </separator>
  <separator name="linear response parameters" >
   <i type="logical" name="LEPSILON"> F  </i>
   <i type="logical" name="LRPA"> F  </i>
   <i type="logical" name="LNABLA"> F  </i>
   <i type="logical" name="LVEL"> F  </i>
   <i name="CSHIFT">      0.10000000</i>
   <i name="OMEGAMAX">     -1.00000000</i>
   <i name="DEG_THRESHOLD">      0.00200000</i>
   <i name="RTIME">     -0.10000000</i>
   <i name="WPLASMAI">      0.00000000</i>
   <v name="DFIELD">      0.00000000      0.00000000      0.00000000</v>
   <v name="WPLASMA">      0.00000000      0.00000000      0.00000000      0.00000000      0.00000000      0.00000000      0.00000000      0.00000000      0.00000000</v>
  </separator>
  <separator name="orbital magnetization" >
   <i type="logical" name="NUCIND"> F  </i>
   <v name="MAGPOS">      0.00000000      0.00000000      0.00000000</v>
   <i type="logical" name="LNICSALL"> T  </i>
   <i type="logical" name="ORBITALMAG"> F  </i>
   <i type="logical" name="LMAGBLOCH"> F  </i>
   <i type="logical" name="LCHIMAG"> F  </i>
   <i type="logical" name="LGAUGE"> T  </i>
   <i type="int" name="MAGATOM">     0</i>
   <v name="MAGDIPOL">      0.00000000      0.00000000      0.00000000</v>
   <v name="AVECCONST">      0.00000000      0.00000000      0.00000000</v>
  </separator>
  <separator name="response functions" >
   <i type="logical" name="LFINITE_TEMPERATURE"> F  </i>
   <i type="logical" name="LADDER"> F  </i>
   <i type="logical" name="LRPAFORCE"> F  </i>
   <i type="logical" name="LFXC"> F  </i>
   <i type="logical" name="LHARTREE"> T  </i>
   <i type="int" name="IBSE">     0</i>
   <v type="int" name="KPOINT">    -1     0     0     0</v>
   <i type="logical" name="LTCTC"> F  </i>
   <i type="logical" name="LTCTE"> F  </i>
   <i type="logical" name="LTETE"> F  </i>
   <i type="logical" name="LTRIPLET"> F  </i>
   <i type="logical" name="LFXCEPS"> F  </i>
   <i type="logical" name="LFXHEG"> F  </i>
   <i type="int" name="NATURALO">     2</i>
   <i type="logical" name="LHOLEGF"> F  </i>
   <i type="logical" name="L2ORDER"> F  </i>
   <i type="logical" name="LDMP1"> F  </i>
   <i type="logical" name="LMP2LT"> F  </i>
   <i type="logical" name="LSMP2LT"> F  </i>
   <i type="logical" name="LGWLF"> F  </i>
   <i name="ENCUTGW">     -2.00000000</i>
   <i name="ENCUTGWSOFT">     -2.00000000</i>
   <i name="ENCUTLF">     -1.00000000</i>
   <i type="logical" name="LESF_SPLINES"> F  </i>
   <i type="int" name="LMAXMP2">    -1</i>
   <i name="SCISSOR">      0.00000000</i>
   <i type="int" name="NOMEGA">     0</i>
   <i type="int" name="NOMEGAR">     0</i>
   <i type="int" name="NBANDSGW">    -1</i>
   <i type="int" name="NBANDSO">    -1</i>
   <i type="int" name="NBANDSV">    -1</i>
   <i type="int" name="NELMGW">     1</i>
   <i type="int" name="NELMHF">     1</i>
   <i type="int" name="DIM">     3</i>
   <i type="int" name="IESPILON">     4</i>
   <i type="int" name="ANTIRES">     0</i>
   <i name="OMEGAMAX">    -30.00000000</i>
   <i name="OMEGAMIN">    -30.00000000</i>
   <i name="OMEGATL">   -200.00000000</i>
   <i type="int" name="OMEGAGRID">     0</i>
   <i name="CSHIFT">     -0.10000000</i>
   <i type="logical" name="LSELFENERGY"> F  </i>
   <i type="logical" name="LSPECTRAL"> F  </i>
   <i type="logical" name="LSPECTRALGW"> F  </i>
   <i type="logical" name="LSINGLES"> F  </i>
   <i type="logical" name="LFERMIGW"> F  </i>
   <i type="logical" name="ODDONLYGW"> F  </i>
   <i type="logical" name="EVENONLYGW"> F  </i>
   <i type="int" name="NKREDLFX">     1</i>
   <i type="int" name="NKREDLFY">     1</i>
   <i type="int" name="NKREDLFZ">     1</i>
   <i type="int" name="MAXMEM">  2800</i>
   <i type="int" name="TELESCOPE">     0</i>
   <i type="int" name="NTAUPAR">    -1</i>
   <i type="int" name="NOMEGAPAR">    -1</i>
   <i name="DAMP_NEWTON">      0.80000001</i>
   <i name="LAMBDA">      1.00000000</i>
  </separator>
  <separator name="External order field" >
   <i name="OFIELD_KAPPA">      0.00000000</i>
   <v name="OFIELD_K">      0.00000000      0.00000000      0.00000000</v>
   <i name="OFIELD_Q6_NEAR">      0.00000000</i>
   <i name="OFIELD_Q6_FAR">      0.00000000</i>
   <i name="OFIELD_A">      0.00000000</i>
  </separator>
  <separator name="optional k-points parameters" >
   <i type="int" name="KPOINTS_OPT_MODE">     1</i>
   <i type="logical" name="LKPOINTS_OPT"> F  </i>
  </separator>
 </parameters>
 <atominfo>
  <atoms>      28 </atoms>
  <types>       4 </types>
  <array name="atoms" >
   <dimension dim="1">ion</dimension>
   <field type="string">element</field>
   <field type="int">atomtype</field>
   <set>
    <rc><c>O </c><c>   1</c></rc>
    <rc><c>O </c><c>   1</c></rc>
    <rc><c>O </c><c>   1</c></rc>
    <rc><c>O </c><c>   1</c></rc>
    <rc><c>O </c><c>   1</c></rc>
    <rc><c>O </c><c>   1</c></rc>
    <rc><c>O </c><c>   1</c></rc>
    <rc><c>O </c><c>   1</c></rc>
    <rc><c>O </c><c>   1</c></rc>
    <rc><c>O </c><c>   1</c></rc>
    <rc><c>O </c><c>   1</c></rc>
    <rc><c>O </c><c>   1</c></rc>
    <rc><c>O </c><c>   1</c></rc>
    <rc><c>O </c><c>   1</c></rc>
    <rc><c>O </c><c>   1</c></rc>
    <rc><c>O </c><c>   1</c></rc>
    <rc><c>P </c><c>   2</c></rc>
    <rc><c>P </c><c>   2</c></rc>
    <rc><c>P </c><c>   2</c></rc>
    <rc><c>P </c><c>   2</c></rc>
    <rc><c>Li</c><c>   3</c></rc>
    <rc><c>Li</c><c>   3</c></rc>
    <rc><c>Li</c><c>   3</c></rc>
    <rc><c>Li</c><c>   3</c></rc>
    <rc><c>Fe</c><c>   4</c></rc>
    <rc><c>Fe</c><c>   4</c></rc>
    <rc><c>Fe</c><c>   4</c></rc>
    <rc><c>Fe</c><c>   4</c></rc>
   </set>
  </array>
  <array name="atomtypes" >
   <dimension dim="1">type</dimension>
   <field type="int">atomspertype</field>
   <field type="string">element</field>
   <field>mass</field>
   <field>valence</field>
   <field type="string">pseudopotential</field>
   <set>
    <rc><c>  16</c><c>O </c><c>     16.00000000</c><c>      6.00000000</c><c> PAW_PBE O 08Apr2002                    </c></rc>
    <rc><c>   4</c><c>P </c><c>     30.97400000</c><c>      5.00000000</c><c>  PAW_PBE P 17Jan2003                   </c></rc>
    <rc><c>   4</c><c>Li</c><c>      7.01000000</c><c>      3.00000000</c><c> PAW_PBE Li_sv 23Jan2001                </c></rc>
    <rc><c>   4</c><c>Fe</c><c>     55.84700000</c><c>      8.00000000</c><c> PAW_PBE Fe 06Sep2000                   </c></rc>
   </set>
  </array>
 </atominfo>
 <structure name="initialpos" >
  <crystal>
   <varray name="basis" >
    <v>      10.41608216       0.00000000       0.00000000 </v>
    <v>       0.00000000       6.06983209      -0.00000005 </v>
    <v>       0.00000000      -0.00000178       4.74961887 </v>
   </varray>
   <i name="volume">    300.28928487 </i>
   <varray name="rec_basis" >
    <v>       0.09600539       0.00000000       0.00000000 </v>
    <v>       0.00000000       0.16474920       0.00000006 </v>
    <v>       0.00000000       0.00000000       0.21054321 </v>
   </varray>
  </crystal>
  <varray name="positions" >
   <v>       0.09601913       0.25000000       0.74163265 </v>
   <v>       0.83477364       0.54656912       0.71470121 </v>
   <v>       0.83477364       0.95343188       0.71470121 </v>
   <v>       0.90398187       0.75000000       0.25836835 </v>
   <v>       0.04376453       0.75000000       0.70782547 </v>
   <v>       0.40398087       0.75000000       0.24163165 </v>
   <v>       0.16522636       0.04656912       0.28529979 </v>
   <v>       0.66522636       0.45343088       0.21470021 </v>
   <v>       0.33477364       0.54656912       0.78529979 </v>
   <v>       0.33477364       0.95343188       0.78529979 </v>
   <v>       0.95623547       0.25000000       0.29217553 </v>
   <v>       0.45623547       0.25000000       0.20782447 </v>
   <v>       0.54376453       0.75000000       0.79217653 </v>
   <v>       0.59601913       0.25000000       0.75836935 </v>
   <v>       0.66522636       0.04656912       0.21470021 </v>
   <v>       0.16522636       0.45343088       0.28529979 </v>
   <v>       0.09398981       0.25000000       0.41808798 </v>
   <v>       0.40601019       0.75000000       0.91808898 </v>
   <v>       0.59398981       0.25000000       0.08191002 </v>
   <v>       0.90601019       0.75000000       0.58191102 </v>
   <v>       0.00000000       0.00000000       0.00000000 </v>
   <v>       0.50000000       0.50000000       0.50000000 </v>
   <v>       0.50000000       0.00000000       0.50000000 </v>
   <v>       0.00000000       0.50000000       0.00000000 </v>
   <v>       0.78089765       0.25000000       0.52546944 </v>
   <v>       0.71910235       0.75000000       0.02547144 </v>
   <v>       0.28089765       0.25000000       0.97452956 </v>
   <v>       0.21910235       0.75000000       0.47452956 </v>
  </varray>
  <varray name="velocities" >
   <v>       0.00000000       0.00000000       0.00000000 </v>
   <v>       0.00000000       0.00000000       0.00000000 </v>
   <v>       0.00000000       0.00000000       0.00000000 </v>
   <v>       0.00000000       0.00000000       0.00000000 </v>
   <v>       0.00000000       0.00000000       0.00000000 </v>
   <v>       0.00000000       0.00000000       0.00000000 </v>
   <v>       0.00000000       0.00000000       0.00000000 </v>
   <v>       0.00000000       0.00000000       0.00000000 </v>
   <v>       0.00000000       0.00000000       0.00000000 </v>
   <v>       0.00000000       0.00000000       0.00000000 </v>
   <v>       0.00000000       0.00000000       0.00000000 </v>
   <v>       0.00000000       0.00000000       0.00000000 </v>
   <v>       0.00000000       0.00000000       0.00000000 </v>
   <v>       0.00000000       0.00000000       0.00000000 </v>
   <v>       0.00000000       0.00000000       0.00000000 </v>
   <v>       0.00000000       0.00000000       0.00000000 </v>
   <v>       0.00000000       0.00000000       0.00000000 </v>
   <v>       0.00000000       0.00000000       0.00000000 </v>
   <v>       0.00000000       0.00000000       0.00000000 </v>
   <v>       0.00000000       0.00000000       0.00000000 </v>
   <v>       0.00000000       0.00000000       0.00000000 </v>
   <v>       0.00000000       0.00000000       0.00000000 </v>
   <v>       0.00000000       0.00000000       0.00000000 </v>
   <v>       0.00000000       0.00000000       0.00000000 </v>
   <v>       0.00000000       0.00000000       0.00000000 </v>
   <v>       0.00000000       0.00000000       0.00000000 </v>
   <v>       0.00000000       0.00000000       0.00000000 </v>
   <v>       0.00000000       0.00000000       0.00000000 </v>
  </varray>
 </structure>
 <calculation>
  <scstep>
   <time name="dav">    1.16    1.16</time>
   <time name="total">    1.32    1.35</time>
   <energy>
    <i name="alphaZ">    483.10018356 </i>
    <i name="ewald">  -7966.88980323 </i>
    <i name="hartreedc">  -2799.14871147 </i>
    <i name="XCdc">    521.30760748 </i>
    <i name="pawpsdc">   6272.09240760 </i>
    <i name="pawaedc">  -6394.57164539 </i>
    <i name="eentropy">     -0.00000767 </i>
    <i name="bandstr">    888.15007972 </i>
    <i name="atom">  10809.33661609 </i>
    <i name="e_fr_energy">   1813.37672668 </i>
    <i name="e_wo_entrp">   1813.37673435 </i>
    <i name="e_0_energy">   1813.37673052 </i>
   </energy>
  </scstep>
  <scstep>
   <time name="dav">    1.19    1.19</time>
   <time name="total">    1.19    1.19</time>
   <energy>
    <i name="e_fr_energy">    119.77058211 </i>
    <i name="e_wo_entrp">    119.81454519 </i>
    <i name="e_0_energy">    119.79256365 </i>
   </energy>
  </scstep>
  <scstep>
   <time name="dav">    1.30    1.31</time>
   <time name="total">    1.30    1.31</time>
   <energy>
    <i name="e_fr_energy">   -196.29494103 </i>
    <i name="e_wo_entrp">   -196.20563726 </i>
    <i name="e_0_energy">   -196.25028915 </i>
   </energy>
  </scstep>
  <scstep>
   <time name="dav">    1.10    1.11</time>
   <time name="total">    1.10    1.11</time>
   <energy>
    <i name="e_fr_energy">   -217.27541641 </i>
    <i name="e_wo_entrp">   -217.11873892 </i>
    <i name="e_0_energy">   -217.19707767 </i>
   </energy>
  </scstep>
  <scstep>
   <time name="dav">    1.28    1.28</time>
   <time name="total">    1.34    1.34</time>
   <energy>
    <i name="e_fr_energy">   -218.18966340 </i>
    <i name="e_wo_entrp">   -218.03048442 </i>
    <i name="e_0_energy">   -218.11007391 </i>
   </energy>
  </scstep>
  <scstep>
   <time name="dav">    1.29    1.29</time>
   <time name="total">    1.49    1.50</time>
   <energy>
    <i name="e_fr_energy">   -212.24314156 </i>
    <i name="e_wo_entrp">   -212.24122222 </i>
    <i name="e_0_energy">   -212.24218189 </i>
   </energy>
  </scstep>
  <scstep>
   <time name="dav">    1.22    1.22</time>
   <time name="total">    1.41    1.42</time>
   <energy>
    <i name="e_fr_energy">   -190.65142254 </i>
    <i name="e_wo_entrp">   -190.65114539 </i>
    <i name="e_0_energy">   -190.65128396 </i>
   </energy>
  </scstep>
  <scstep>
   <time name="dav">    1.10    1.11</time>
   <time name="total">    1.32    1.48</time>
   <energy>
    <i name="e_fr_energy">   -190.34248539 </i>
    <i name="e_wo_entrp">   -190.27320479 </i>
    <i name="e_0_energy">   -190.30784509 </i>
   </energy>
  </scstep>
  <scstep>
   <time name="dav">    1.28    1.29</time>
   <time name="total">    1.48    1.52</time>
   <energy>
    <i name="e_fr_energy">   -200.39245418 </i>
    <i name="e_wo_entrp">   -200.24913924 </i>
    <i name="e_0_energy">   -200.32079671 </i>
   </energy>
  </scstep>
  <scstep>
   <time name="dav">    1.29    1.30</time>
   <time name="total">    1.49    1.54</time>
   <energy>
    <i name="e_fr_energy">   -193.17345709 </i>
    <i name="e_wo_entrp">   -193.05033753 </i>
    <i name="e_0_energy">   -193.11189731 </i>
   </energy>
  </scstep>
  <scstep>
   <time name="dav">    1.26    1.26</time>
   <time name="total">    1.45    1.54</time>
   <energy>
    <i name="e_fr_energy">   -189.60522110 </i>
    <i name="e_wo_entrp">   -189.46854779 </i>
    <i name="e_0_energy">   -189.53688445 </i>
   </energy>
  </scstep>
  <scstep>
   <time name="dav">    1.22    1.23</time>
   <time name="total">    1.41    1.47</time>
   <energy>
    <i name="e_fr_energy">   -189.17737956 </i>
    <i name="e_wo_entrp">   -189.06542596 </i>
    <i name="e_0_energy">   -189.12140276 </i>
   </energy>
  </scstep>
  <scstep>
   <time name="dav">    1.32    1.33</time>
   <time name="total">    1.52    1.67</time>
   <energy>
    <i name="e_fr_energy">   -189.03006199 </i>
    <i name="e_wo_entrp">   -189.02132384 </i>
    <i name="e_0_energy">   -189.02569291 </i>
   </energy>
  </scstep>
  <scstep>
   <time name="dav">    1.26    1.26</time>
   <time name="total">    1.45    1.51</time>
   <energy>
    <i name="e_fr_energy">   -189.04068442 </i>
    <i name="e_wo_entrp">   -189.02528047 </i>
    <i name="e_0_energy">   -189.03298244 </i>
   </energy>
  </scstep>
  <scstep>
   <time name="dav">    1.26    1.27</time>
   <time name="total">    1.45    1.48</time>
   <energy>
    <i name="e_fr_energy">   -189.03102364 </i>
    <i name="e_wo_entrp">   -189.01904792 </i>
    <i name="e_0_energy">   -189.02503578 </i>
   </energy>
  </scstep>
  <scstep>
   <time name="dav">    1.28    1.29</time>
   <time name="total">    1.48    1.49</time>
   <energy>
    <i name="e_fr_energy">   -189.02756683 </i>
    <i name="e_wo_entrp">   -189.01641183 </i>
    <i name="e_0_energy">   -189.02198933 </i>
   </energy>
  </scstep>
  <scstep>
   <time name="dav">    1.29    1.30</time>
   <time name="total">    1.50    1.52</time>
   <energy>
    <i name="e_fr_energy">   -189.03191971 </i>
    <i name="e_wo_entrp">   -189.02251318 </i>
    <i name="e_0_energy">   -189.02721644 </i>
   </energy>
  </scstep>
  <scstep>
   <time name="dav">    1.34    1.35</time>
   <time name="total">    1.56    1.63</time>
   <energy>
    <i name="e_fr_energy">   -189.03379278 </i>
    <i name="e_wo_entrp">   -189.02556194 </i>
    <i name="e_0_energy">   -189.02967736 </i>
   </energy>
  </scstep>
  <scstep>
   <time name="dav">    1.10    1.11</time>
   <time name="total">    1.31    1.33</time>
   <energy>
    <i name="e_fr_energy">   -189.03432959 </i>
    <i name="e_wo_entrp">   -189.02728064 </i>
    <i name="e_0_energy">   -189.03080511 </i>
   </energy>
  </scstep>
  <scstep>
   <time name="dav">    0.73    0.74</time>
   <time name="total">    0.89    0.96</time>
   <energy>
    <i name="alphaZ">    483.10018356 </i>
    <i name="ewald">  -7966.88980323 </i>
    <i name="hartreedc">  -2983.75822148 </i>
    <i name="XCdc">    537.67560331 </i>
    <i name="pawpsdc">   7301.14143017 </i>
    <i name="pawaedc">  -7427.82376293 </i>
    <i name="eentropy">     -0.00661761 </i>
    <i name="bandstr">   -941.80967775 </i>
    <i name="atom">  10809.33661609 </i>
    <i name="e_fr_energy">   -189.03424988 </i>
    <i name="e_wo_entrp">   -189.02763226 </i>
    <i name="e_0_energy">   -189.03094107 </i>
   </energy>
  </scstep>
  <structure>
   <crystal>
    <varray name="basis" >
     <v>      10.41608216       0.00000000       0.00000000 </v>
     <v>       0.00000000       6.06983209      -0.00000005 </v>
     <v>       0.00000000      -0.00000178       4.74961887 </v>
    </varray>
    <i name="volume">    300.28928487 </i>
    <varray name="rec_basis" >
     <v>       0.09600539       0.00000000       0.00000000 </v>
     <v>       0.00000000       0.16474920       0.00000006 </v>
     <v>       0.00000000       0.00000000       0.21054321 </v>
    </varray>
   </crystal>
   <varray name="positions" >
    <v>       0.09601913       0.25000000       0.74163265 </v>
    <v>       0.83477364       0.54656912       0.71470121 </v>
    <v>       0.83477364       0.95343188       0.71470121 </v>
    <v>       0.90398187       0.75000000       0.25836835 </v>
    <v>       0.04376453       0.75000000       0.70782547 </v>
    <v>       0.40398087       0.75000000       0.24163165 </v>
    <v>       0.16522636       0.04656912       0.28529979 </v>
    <v>       0.66522636       0.45343088       0.21470021 </v>
    <v>       0.33477364       0.54656912       0.78529979 </v>
    <v>       0.33477364       0.95343188       0.78529979 </v>
    <v>       0.95623547       0.25000000       0.29217553 </v>
    <v>       0.45623547       0.25000000       0.20782447 </v>
    <v>       0.54376453       0.75000000       0.79217653 </v>
    <v>       0.59601913       0.25000000       0.75836935 </v>
    <v>       0.66522636       0.04656912       0.21470021 </v>
    <v>       0.16522636       0.45343088       0.28529979 </v>
    <v>       0.09398981       0.25000000       0.41808798 </v>
    <v>       0.40601019       0.75000000       0.91808898 </v>
    <v>       0.59398981       0.25000000       0.08191002 </v>
    <v>       0.90601019       0.75000000       0.58191102 </v>
    <v>       0.00000000       0.00000000       0.00000000 </v>
    <v>       0.50000000       0.50000000       0.50000000 </v>
    <v>       0.50000000       0.00000000       0.50000000 </v>
    <v>       0.00000000       0.50000000       0.00000000 </v>
    <v>       0.78089765       0.25000000       0.52546944 </v>
    <v>       0.71910235       0.75000000       0.02547144 </v>
    <v>       0.28089765       0.25000000       0.97452956 </v>
    <v>       0.21910235       0.75000000       0.47452956 </v>
   </varray>
  </structure>
  <varray name="forces" >
   <v>       0.50515610      -0.00001275       0.00393024 </v>
   <v>      -0.49333790      -0.87584616       0.53509096 </v>
   <v>      -0.49333556       0.87563711       0.53493793 </v>
   <v>      -0.52433489      -0.00001634      -0.00588760 </v>
   <v>       0.63018794       0.00006885      -0.48971420 </v>
   <v>      -0.50374839      -0.00000740       0.00574745 </v>
   <v>       0.47434421      -0.87056343      -0.52942723 </v>
   <v>       0.48815712       0.87579320       0.53424662 </v>
   <v>      -0.47648820      -0.86955146      -0.53218083 </v>
   <v>      -0.47643902       0.86933053      -0.53197907 </v>
   <v>      -0.66827191      -0.00000519       0.48831372 </v>
   <v>      -0.63027029      -0.00002040      -0.49002337 </v>
   <v>       0.66852114       0.00000189       0.48752249 </v>
   <v>       0.52570327       0.00001982      -0.00662614 </v>
   <v>       0.48809798      -0.87560941       0.53412475 </v>
   <v>       0.47436548       0.87053721      -0.52959441 </v>
   <v>       0.41188111      -0.00001367       0.51828257 </v>
   <v>      -0.41131710       0.00008403       0.51754849 </v>
   <v>       0.37349497       0.00002498      -0.51311652 </v>
   <v>      -0.37112171       0.00010113      -0.51696107 </v>
   <v>       0.00047716       0.00143430      -0.00011322 </v>
   <v>       0.00028179       0.00060465      -0.00012338 </v>
   <v>       0.00027891      -0.00059492      -0.00014368 </v>
   <v>       0.00044850      -0.00142576      -0.00011544 </v>
   <v>      -0.49476346      -0.00019117      -1.04820072 </v>
   <v>       0.49760126       0.00008800      -1.05465907 </v>
   <v>      -0.49699419       0.00002930       1.04375342 </v>
   <v>       0.49856433       0.00020535       1.04285741 </v>
  </varray>
  <energy>
   <i name="e_fr_energy">   -189.03424988 </i>
   <i name="e_wo_entrp">   -189.02763226 </i>
   <i name="e_0_energy">   -189.03094107 </i>
   <i name="kinetic">      0.00030805 </i>
   <i name="lattice kinetic">      0.00000000 </i>
   <i name="nosepot">      0.00000000 </i>
   <i name="nosekinetic">      0.00000000 </i>
   <i name="total">   -189.03394183 </i>
  </energy>
  <time name="totalsc">   28.20   29.76</time>
 </calculation>
 <calculation>
  <scstep>
   <time name="dav">    1.   <time name="dav">    1.   <time name="dav">    1.   <time name="dav   <time   <time name="dav">    1.   <time name="dav">    1.   <time name="dav">    1.   <time name="dav">    1.   <time name="dav   <time   <time name="dav   <time   <time name="dav">    1.   <time name="   <time name="dav">    1.01    <time nam   <time name="dav">    1.   <time name="dav   <time name="total">       <time name="total">    1.21    1.24</time>
   <energy>
    <i name="alphaZ">    483.10018356 </i>
    <i name="ewald">  -7967.27796644 </i>
    <i name="hartreedc">  -2983.41143359 </i>
    <i name="XCdc">    537.66653792 </i>
    <i name="pawpsdc">   730   <time name="dav">    1.   <time name="dav">    1.   <time name="dav">    1.28    1.28</time>
   <time name="total">    1.47       <time name="dav">    1.   <time name="dav">    1.   <time name="dav">    1.   <time name="dav   <time name="total">       <time   <time name="dav">   <time name="dav">    0.   <time name="dav">    1.   <time name="dav   <time name="total">       <time name="total">    1.14       <time name="dav">    0.   <time name="dav">    0.   <time name="dav">    0.   <time name="dav   <time name="total">       <time name="total   <energy>
    <i name="e   <ener   <time name="dav">    0.89    0.90</time>
   <time name="total">    1.10    1.12</time>
   <energy>
     <time name="dav">    0.   <time name="dav">    0.   <time name="dav">    0.   <time name="dav   <time name="total">       <time name="total">    1.04    1.09</time>
   <ener   <time name="dav">    0.69    0.69</time>
   <energy>
    <i name="e_fr_energy">   -189.   <energy>
     <time name="dav">    0.   <time name="dav">    0.   <time name="dav">    0.   <time name="dav">    0.   <time name="dav">    0.   <time name="dav">    0.69    0.70</   <energy>
    <i name="alphaZ">    483.10018356 </   <energy>
    <i name="alphaZ">    483.10018356 </i>
    <i name="ewald">  -7967.27796644 </i>
    <i name="hartreedc">  -2983.42805509 </i>
    <i name="XCdc">    537.66613691 </i>
    <i name="pawpsdc">   7300.16153404 </i>
    <i name="pawaedc">  -7426.86470939 </i>
    <i name="eentropy">     -0.00559974 </i>
    <i name="bandstr">   -941.72699640 </i>
    <i name="atom">  10809.33661609 <   <time name="dav">    0.66    0.66</time>
   <time name="total">    0.79    0.88</time>
     <structure>
   <crystal>  <structure>
   <crystal>
    <varray name="basis"   <structure>
   <crystal>
    <varray name="basis" >
     <v>      10.41608216       0.00000000       0.00000000 </v>
     <v>       0.00000000       6.06983209      -0.00000005 </v>
     <v>       0.00000000      -0.00000   <time name="dav">    0.73    0.73</time>
   <time   <time name="dav">    0.65    0.66</time>
   <time name="total">    0.80    0.85</time>
   <energy>
    <i name="alphaZ">    483.10018356 </i>
    <i name="ewald">  -7967.27796644 </i>
    <i name="hartreedc">    <structure>
   <crystal>
    <varray name="basis" >
     <v>      10.41608216       0.00000000       0  <structure>
   <crystal>
    <varray name="basis"   <structure>
   <structure>
   <crystal>
    <varray name="basis" >
     <v>      10.41608216       0.00000000       0.00000000 </v>
     <v>       0.00000000       6.06983209      -0.00000005 </v  <structure>
   <structure>
   <crystal>  <structure>
   <crystal>
    <varray name="basis"   <structure>
   <crystal>
    <varray name="basis" >
     <v>      10.41608216       0.00000000       0.00000000 </v>
     <v>       0.00000000       6.06983209      -0.00000005 </v>
     <v>       0.00000000      -0.00000178       4.74961887 </v>
    </varray>
    <i name="volume">    300.28928487 </i>
    <varray name="rec_basis" >
     <v>       0.09600539       0.00000000       0.00000000 </v>
     <v>       0.00000000       0.16474920       0.00000006 </v>
     <v>       0.00000000       0.00000000       0.21054321 </v>
    </varray>
   </crystal>
   <varray name="positions" >
    <v>       0.09603375       0.25000000       0.74163290 </v>
    <v>       0.83475937       0.54652561       0.71473518 </v>
    <v>       0.83475937       0.95347537       0.71473517 </v>
    <v>       0.90396670       0.75000000       0.25836798 </v>
    <v>       0.04378277       0.75000000       0.70779439 </v>
    <v>       0.40396629       0.75000000       0.24163202 </v>
    <v>       0.16524009       0.04652588       0.28526618 </v>
    <v>       0.66524049       0.45347438       0.21473413 </v>
    <v>       0.33475985       0.54652593       0.78526601 </v>
    <v>       0.33475986       0.95347506       0.78526602 </v>
    <v>       0.95621613       0.25000000       0.29220653 </v>
    <v>       0.45621723       0.25000000       0.20779337 </v>
    <v>       0.54378388       0.75000000       0.79220748 </v>
    <v>       0.59603435       0.25000000       0.75836894 </v>
    <v>       0.66524049       0.04652563       0.21473412 </v>
    <v>       0.16524009       0.45347412       0.28526617 </v>
    <v>       0.09399597       0.25000000       0.41810498 </v>
    <v>       0.40600404       0.75000000       0.91810596 </v>
    <v>       0.59399540       0.25000000       0.08189320 </v>
    <v>       0.90600464       0.75000000       0.58189407 </v>
    <v>       0.00000003       0.00000016       0.99999999 </v>
    <v>       0.50000002       0.50000007       0.49999999 </v>
    <v>       0.50000002       0.99999993       0.49999998 </v>
    <v>       0.00000003       0.49999984       0.99999999 </v>
    <v>       0.78089355       0.25000000       0.52545038 </v>
    <v>       0.71910648       0.75000000       0.02545226 </v>
    <v>       0.28089353       0.25000000       0.97454855 </v>
    <v>       0.21910649       0.75000000       0.47454853 </v>
   </varray>
  </structure>
  <varray name="forces" >
   <v>       0.51790716       0.00000352       0.01369141 </v>
   <v>      -0.48340063      -0.86699908       0.52857282 </v>
   <v>      -0.48334558       0.86688033       0.52867478 </v>
   <v>      -0.51884995      -0.00001265      -0.00989511 </v>
   <v>       0.64163969      -0.00004257      -0.49039352 </v>
   <v>      -0.51711758       0.00001573       0.01309896 </v>
   <v>       0.48210184      -0.86615315      -0.53398008 </v>
   <v>       0.48332120       0.86337703       0.53176209 </v>
   <v>      -0.48080758      -0.86689811      -0.52911387 </v>
   <v>      -0.48070735       0.86675414      -0.52900163 </v>
   <v>      -0.64888152       0.00002209       0.48888755 </v>
   <v>      -0.64232047       0.00001877      -0.49054289 </v>
   <v>       0.64742927      -0.00000487       0.48890858 </v>
   <v>       0.51962766      -0.00000665      -0.01071537 </v>
   <v>       0.48328542      -0.86335953       0.53164465 </v>
   <v>       0.48208471       0.86615958      -0.53384088 </v>
   <v>       0.39452957       0.00000889       0.50454672 </v>
   <v>      -0.39447718       0.00012149       0.50590207 </v>
   <v>       0.38923084      -0.00001836      -0.50334826 </v>
   <v>      -0.38831754       0.00009595      -0.50530942 </v>
   <v>      -0.00007194       0.00012709       0.00016953 </v>
   <v>      -0.00018370       0.00015206      -0.00032315 </v>
   <v>      -0   <time name="dav">    1.20    1.20</time>
   <time name="total">    1.38    1.41</time>
   <energy>
    <i name="alphaZ">    483.10018356 </i>
    <i name="ewald">  -7968.44375229 </i>
    <i name="hartreedc">  -2982.80373213 </i>
    <i name="XCdc">    537.64851968 </i>
    <i name="pawpsdc">   7299.31737867 </i>  <time name="totalsc">    7.01    8.98</time>
 </calculation>
 name="total">   <time name="totalsc">    6.98    9.61</time>
 </ca  <time name="totalsc">     <time name="t  <time name="totalsc">    7.09    9.76</time>
 </calculation>
e="totalsc">    6.86    9.64</time>
 </calculation>
61</time>
 </calculation>
e="totalsc </ca  <time    <time name="total">       <time   <time name="dav">    1.19    1.19</time>
   <time   <time name="dav">    1.   <time name="dav">    1.23    1.23</tim      <time name="total">    1.43    1.44</t   <time name="total">    1.41    1.43<   <time name="dav">    1.   <time name="dav   <time name="total">    1.38       <time name="dav">    1.20    1.20</time>
   <time   <time name="dav">    1.   <time name="dav">    1.21    1.22</tim      <time name="total">    1.41    1.42</t   <time name="total">    1.40    1.42<   <time name="dav">    1.   <time name="dav   <time name="tot   <time name="dav">    1.19    1.19</time>
   <time name="total">     <time name="dav">    1.   <time name="dav">    1.06    1.07</tim      <time name="total">    1.25    1.28</t   <time name="total">    1.26    1.27<   <time name="dav">    0.   <time name="dav   <time name="tot   <time name="dav">    1.03    1.03</time>
   <time name="total">    1.22    1.28</time>
   <energy>
    <i name="e_fr_energy">   -189      <time name="total">    0.99    1.01</t   <t   <energy>
    <i name="e_fr_ener   <time name="dav">    0.   <time name="dav">    0.   <time n   <time name="dav">    0.76    0.76</time>
   <time name="total">    0.95    0.97</time>
   <   <time name="dav">    0.74    0.75</time>
   <time name="total">    0.89    0.92</time>
   <energy>
    <i name="alphaZ">    483.10018356 </i>
    <i name="ewald">  -7968.44375229 </i>   <time name="dav">    0.70    0.70</time>
   <time name="total">    0.84    0.85</time>
   <energy>
    <i name="alphaZ">    483.10018356 </i>
    <i name="ewald">  -7968.44375229 </i>
    <i name="hartreedc">  -2982.47783470 </i>
    <i name="XCdc">    537.62347756 </i>
    <i name="pawpsdc">   7298.92335242 </i>
    <i name="pawaedc">  -7425.62883121 </i>
    <i name="eentropy">     -0.00   <time name="dav">    0.72    0.72</time>
   <time name="total">    0.87    0.97</time>
   <energy>
     <time name="dav">    0.70    0.71</time>
   <time name="total">    0.85    0.87</time>
   <energy>
    <i name="alphaZ">    483.10018356 </i>
    <i name="ew  <structure>
   <crystal>
    <varray name="basis" >
     <v>      10.41608216       0.00000000       0.00000000 </v>
     <v>       0.00000000       6.06983209      -0.00000005 </v>
     <v>       0.00000000      -0.00000178       4.74961887 </v>
    </varray>
    <i name="volume">    300.28928487 </i>
    <varray name="rec_basis" >
     <v>       0.09600539       0.00000000       0.0000000  <structure>
   <crystal>
    <varray name="basis" >
     <v>      10.41608216       0.00   <time name=  <structure>
   <crystal>
    <varray name="basis" >
     <v>      10.41608   <ener   <time name="dav">    0.80    0.81</time>
   <time   <time name="dav">    0.   <time name="dav   <time name="total">       <time   <time name="dav">    0.   <time name="dav">    0.   <time name="dav">    0.86    0.86</time>
   <time name="total">    1.06    1.07</time>
   <ener   <time name="dav">    0.73    0.73</time>
   <time   <time name="dav">    0.   <time name="dav">    0.73    0.73</time>
   <time   <time name="dav">    0.   <time name="dav">    0.   <time name="dav">    0.76    0.76</time>
   <time name="total">    0.90    0.92</time>
   <energy>
    <i name="alphaZ">    483.10018356 </i>
    <i name="ewald">  -7968.44375229 </i>
    <i name="hartreedc">  -2982.47783470 </i>
    <i name="XCdc">    537.62347756 </i>
    <i name="pawpsdc">   7298.92335242 </i>
    <i name="pawaedc">  -7425.62883121 </i>
    <i name="eentropy">     -0.00571248 </i>
    <i name="bandstr">   -941.48093584 </i>
    <i name="atom">  10809  <structure>
   <crystal>
    <varray name="basis"   <structure>
   <crystal>  <structure>
   <crystal>
    <varray name="basis"   <structure>
   <crystal>  <structure>
   <crystal>  <structure>
   <crystal>
    <varray name="basis" >
     <v>      10.41608216       0.00000000       0.00000000 </v>
     <v>       0.00000000       6.06983209      -0.00000005 </v>
     <v>       0.00000000      -0.00000178       4.74961887 </v>
    </varray>
    <i name="volume">    300.28928487 </i>
    <varray name="rec_basis" >
     <v>       0.09600539       0.00000000       0.00000000 </v>
     <v>       0.00000000       0.16474920       0.00000006 </v>
     <v>       0.00000000       0.00000000       0.21054321 </v>
    </varray>
   </crystal>
   <varray name="positions" >
    <v>       0.09607873       0.25000000       0.74163492 </v>
    <v>       0.83471676       0.54639490       0.71483712 </v>
    <v>       0.83471676       0.95360607       0.71483711 </v>
    <v>       0.90392111       0.75000000       0.25836636 </v>
    <v>       0.04383863       0.75000000       0.70770028 </v>
    <v>       0.40392142       0.75000000       0.24163408 </v>
    <v>       0.16528208       0.04639551       0.28516396 </v>
    <v>       0.66528296       0.45360473       0.21483642 </v>
    <v>       0.33471789       0.54639554       0.78516423 </v>
    <v>       0.33471790       0.95360543       0.78516427 </v>
    <v>       0.95615876       0.25000000       0.29230039 </v>
    <v>       0.45616135       0.25000000       0.20769922 </v>
    <v>       0.54384120       0.75000000       0.79230129 </v>
    <v>       0.59608003       0.25000000       0.75836716 </v>
    <v>       0.66528295       0.04639529       0.21483638 </v>
    <v>       0.16528208       0.45360449       0.28516395 </v>
    <v>       0.09401409       0.25000000       0.41815550 </v>
    <v>       0.40598595       0.75000001       0.91815654 </v>
    <v>       0.59401277       0.25000000       0.08184296 </v>
    <v>       0.90598735       0.75000001       0.58184358 </v>
    <v>       0.00000006       0.00000036       0.00000004 </v>
    <v>       0.50000002       0.50000017       0.49999989 </v>
    <v>       0.50000002       0.99999983       0.49999989 </v>
    <v>       0.00000006       0.49999965       0.00000004 </v>
    <v>       0.78088110       0.24999999       0.52539288 </v>
    <v>       0.71911896       0.75000000       0.02539450 </v>
    <v>       0.28088100       0.25000000       0.97460596 </v>
    <v>       0.21911894       0.75000001       0.47460604 </v>
   </varray>
  </structure>
  <varray name="forces" >
   <v>       0.52353319      -0.00001157       0.01091564 </v>
   <v>      -0.45838899      -0.82851480       0.51853334 </v>
   <v>      -0.45829054       0.82841195       0.51858641 </v>
   <v>      -0.50974611       0.00002411      -0.01713354 </v>
   <v>       0.62449833       0.00001028      -0.49123910 </v>
   <v>      -0.52599151      -0.00000613       0.00918165 </v>
   <v>       0.46639270      -0.83269813      -0.51488366 </v>
   <v>       0.45841158       0.83396975       0.51793614 </v>
   <v>      -0.46833652      -0.82965011      -0.52064017 </v>
   <v>      -0.46825811       0.82953791      -0.52048094 </v>
   <v>      -0.60042757      -0.00002306       0.49278851 </v>
   <v>      -0.62431369       0.00001039      -0.49415781 </v>
   <v>       0.60198852      -0.00000200       0.49421008 </v>
   <v>       0.51134603       0.00000707      -0.01489137 </v>
   <v>       0.45841026      -0.83400189       0.51788535 </v>
   <v>       0.46643011       0.83270149      -0.51476871 </v>
   <v>       0.38667938       0.00000177       0.47209041 </v>
   <v>      -0.38978567       0.00011575       0.46911286 </v>
   <v>       0.40482314       0.00000178      -0.47129047 </v>
   <v>      -0.40429646       0.00009988      -0.47009822 </v>
   <v>      -0.00010698      -0.00051596      -0.0001565   <time name="dav">    1.   <time name="dav">    1.19    1.20</time>
   <time name="tota   <time name="dav">    1.18    1.19</time>
   <time name="total">    1.   <time name="dav">    1.18    1.19</time>
   <time name="tota   <time name="dav">    1.21    1.22</time>
   <time nam   <time name="dav">    1.   <time name="dav">    1.20    1.21</time>
   <time name="tota   <time name="dav">    1.21    1.22</time>
   <time name="total">    1.   <time name="dav">    1.   <time na   <tim   <time name="tota   <time name="dav">    1.09    1.09</time>
   <time nam   <time name="dav">    1.   <time name="dav   <time name="total">       <time name="tota   <time name="dav">    1.09    1.09</time>
   <time name="total">    1.   <time name="dav">    0.78    0.79<   <tim   <time name="tota   <time name="dav">    0.79    0.80</time>
   <time nam   <time name="dav">    0.   <time name="dav   <time name="total">       <time name="tota   <time name="dav">    0.79    0.80</time>
   <time name="total">    0.   <time name="dav">    0.79    0.79</time>
   <time name="tota   <time name="dav">    0.79    0.80</time>
   <time nam   <time name="dav">    0.79    0.81</time>
   <time name="total">    0.99    1.10</time>   <time name="dav">    0.93    0.93</time>
   <time name="total">    1.   <time name="dav">    0.71    0.71</time>
   <time name="tota   <time name="dav">    0.70    0.70</time>
   <time nam   <time name="dav">    0.70    0.70</time>
   <time name="total">    0.89    0.91</time>   <time name="dav">    0.82    0.83</time>
   <time name="total">    1.03    1.07</time>
   <energy>
    <i name="e_fr_energy">   -189   <time name="dav">    0.68    0.68</time>
   <time nam   <time name="dav">    0.66    0.66</time>
   <time name="total">    0.81    1.13</time>    <energy>
    <i name="a   <energy>
    <i name="alph    <i n   <energy>
    <i name="alphaZ">    483.10018356 </i>
    <i name="ewald">  -7970.36676332 </i>
    <i name="hartreedc">  -2980.88289041 </i>
    <i name="XCdc">    537.56113235 </i>
    <i name="pawpsdc">   7297.42309796 </i>
    <i name="pawaedc">  -7424.12195203 </i>
    <i name="eentropy">     -0.00567534 </i>
    <i name="bandstr">   -941.12052254 </i>
    <i name="atom">  10809.33661609 </i>
    <i name="e_fr_ener  <structure>
   <crystal>
    <varray n   <crystal>   <time name="dav">    0.66    <structure>
   <crystal>  <structure>
   <crystal>
    <varra  <structure>
   <crystal>
    <varray name="basis" >
     <v>      10.41608216       0.00000000       0.00000000 </v>
     <v>       0.00000000       6.06983209      -0.00000005 </v>
     <v>       0.00000000      -0.00000178       4.74961887 </v>
   <time name="dav">    0.   <time name="dav">    0.   <time name="dav">    0.67    0.67</time>
   <time name="total   <energy>
    <i name="a   <energy>
    <i name="a   <energy>
    <i name="alphaZ">    483.10018356 </i>
    <i name="ewald">  -7970.36676332 </i>
    <i name="hartreedc">  -2980.88289041 </i>
    <i name="XCdc">    537.56113235 </i>
    <i nam   <time name="total">    1.05    1.13</time>
   <energy>
    <i name="e_fr_energy">   -189.07697075 </i>
    <i name="e_wo_entrp">   -189.07111083 </i>
    <i name="e_0_energy">   -189.0740   <time name="dav     <time name="dav">    0.   <time name="dav">    0.70    0.70</time>
   <time name="total">    0.90    0.99</time>
   <energy>
    <i name="e_fr_energy">   -189.07681906 </i>
    <i name="e_wo_entrp">   -189.07107781 </i>
    <i name="e_0_energy">   -189.0739   <time name="dav     <time name="dav">    0.   <time name="dav">    0.71    0.72</time>
   <time name="total   <energy>
    <i name="a   <energy>
    <i name="alphaZ">    483.10018356 </i>
    <i name="ewald">  -7970.36676332 </i>
    <i name="hartreed   <time name="dav">    0.77    0.78</time>
   <time name="total">    0.93    0.94</time>
   <energy>
    <i name="alphaZ">    483.10018356 </i>
    <i name="ewald">  -7970.36676332 </i>
    <i name="hartreedc">  -2980.88289041 </i>
    <i name="XCdc">    537.56113235 </i>
    <i name="pawpsdc">   7297.42   <time name="dav">    0.64    0.64</time>
   <time name="total">    0.78    0.83</time>
   <energy>
    <i name="alph  <structure>
   <crystal>  <structure>
   <crystal>
    <varray name="basis" >
     <v>      10.41608216       0.00000000       0.00000000 </v>
     <v>       0.00000000       6.06983209      -0.00000005 </v>
     <v>       0.0000000  <structure>
   <crystal>
    <varray name="basis" >
     <v>      10.41608216       0.00000000       0.00000000 </v>
     <v>       0.00000000       6.06983209      -0.00000005 </v>
     <v>       0.00000000      -0.00000178       4.74961887 </v>
    </varray>
    <i name="volume">    300.28928487 </i>
  <structure>
   <crystal>
    <varray name="basis" >
     <v>      10.41608216       0.00000000       0.00000000 </v>
     <v>       0.00000000       6.06983209      -0.00000005 </v>
     <v>       0.00000000      -0.00000178       4.74961887 </v>
    </varray>
    <i name="volume">    300.28928487 </i>
    <varray name="rec_basis" >
     <v>       0.09600539       0.00000000       0.00000000 </v>
     <v>       0.00000000       0.16474920       0.00000006 </v>
     <v>       0.00000000       0.00000000       0.21054321 </v>
    </varray>
   </crystal>
   <varray name="positions" >
    <v>       0.09615551       0.25000000       0.74163839 </v>
    <v>       0.83464622       0.54617760       0.71500824 </v>
    <v>       0.83464623       0.95382333       0.71500824 </v>
    <v>       0.90384452       0.75000000       0.25836249 </v>
    <v>       0.04393247       0.75000000       0.70754070 </v>
    <v>       0.40384459       0.75000000       0.24163737 </v>
    <v>       0.16535245       0.04617815       0.28499301 </v>
    <v>       0.66535335       0.45382221       0.21500782 </v>
    <v>       0.33464743       0.54617846       0.78499300 </v>
    <v>       0.33464745       0.95382246       0.78499309 </v>
    <v>       0.95606476       0.25000000       0.29245992 </v>
    <v>       0.45606749       0.25000000       0.20753923 </v>
    <v>       0.54393521       0.75000000       0.79246096 </v>
    <v>       0.59615682       0.25000000       0.75836342 </v>
    <v>       0.66535334       0.04617782       0.21500776 </v>
    <v>       0.16535245       0.45382184       0.28499303 </v>
    <v>       0.09404435       0.25000000       0.41823862 </v>
    <v>       0.40595561       0.75000002       0.91823953 </v>
    <v>       0.59404283       0.25000000       0.08176019 </v>
    <v>       0.90595738       0.75000002       0.58176062 </v>
    <v>       0.00000008       0.00000044       0.00000004 </v>
    <v>       0.50000010       0.50000014       0.49999990 </v>
    <v>       0.50000010       0.99999987       0.49999990 </v>
    <v>       0.00000007       0.49999957       0.00000005 </v>
    <v>       0.78085996       0.24999999       0.52529557 </v>
    <v>       0.71914011       0.75000000       0.02529700 </v>
    <v>       0.28085986       0.25000000       0.97470334 </v>
    <v>       0.21914014       0.75000001       0.47470338 </v>
   </varray>
  </structure>
  <varray name="forces" >
   <v>       0.50911697       0.00001270       0.02466184 </v>
   <v>      -0.43432646      -0.77270438       0.49837883 </v>
   <v>      -0.43428222       0.77261736       0.49844032 </v>
   <v>      -0.51992403      -0.00000664      -0.02181071 </v>
   <v>       0.55444652      -0.00001054      -0.49596409 </v>
   <v>      -0.50730749       0.00000874       0.02394929 </v>
   <v>       0.42705652      -0.77308444      -0.49865898 </v>
   <v>       0.43220341       0.77613523       0.49717389 </v>
   <v>      -0.42589632      -0.77438720      -0.49728517 </v>
   <v>      -0.42584124       0.77427876      -0.49715602 </v>
   <v>      -0.56978748       0.00001312       0.49584357 </v>
   <v>      -0.55583191       0.00001221      -0.49522188 </v>
   <v>       0.57150355      -0.00000307       0.49645559 </v>
   <v>       0.51794729      -0.00000079      -0.02332229 </v>
   <v>       0.43220212      -0.77614152       0.49708436 </v>
   <v>       0.42705240       0.77309868      -0.49855244 </v>
   <v>       0.41147114         <time name="dav">    1.   <time name="dav">    1.25    1.26</time>
   <time name="total">    1.44    1.48</time>
   <energy>
    <i name="e_fr_energy">   -189.10879679 </i>
    <i name="e_wo_entrp">   -189.10288047 </i>
    <i name="e_0_energy">   -189.10583863 </i>
   </energ   <time name="dav">    0.   <time name="dav">    0.99    1.00</time>
   <time name="total">    1.19    1.26</time>
   <energy>
    <i name="e_fr_energy">   -189.10849236 </i>
    <i name="e_wo_entrp">   -189.10260020 </i>
    <i name="e_0_energy">   -189.10554628 </i>
   </energ   <time name="dav">    0.   <time name="dav">    0.83    0.83</time>
   <time name="total">    1.02    1.06</time>
   <energy>
    <i name="e_fr_energy">   -189.10834225 </i>
    <i name="e_wo_entrp">   -189.10263663 </i>
    <i name="e_0_energy">   -189.10548944 </i>
   </energ   <time name="dav">    0.   <time name="dav">    0.79    0.80</time>
   <time name="total">    0.99    1.01</time>
   <energy>
    <i name="e_fr_energy">   -189.10769280 </i>
    <i name="e_wo_entrp">   -189.10222248 </i>
    <i name="e_0_energy">   -189.10495764 </i>
   </energ   <time name="dav">    0.   <time name="dav">    0.76    0.77</time>
   <time name="total">    0.91    0.99</time>
   <energy>
    <i name="alphaZ">    483.10018356 </i>
    <i name="ewald">  -7973.01734753 </i>
    <i name="hartreedc">  -2978.67517764 </i>
    <i name="XCdc">    537.48128483 </i>
    <i name="pawpsdc">   7295.23076160 </i>
    <i name="pawaedc">  -7421.91433481 </i>
    <i name="eentropy">     -0.00546493 </i>
    <i name="bandstr">   -940.64421791 </i>
    <i name="atom">  10809.33661609 </i>
    <i name="e_fr_energy">   -189.10769675 </i>
    <i name="e_wo_entrp">   -189.10223182 </i>
    <i name="e_0_energy">   -189.10   <time na  <structure>
   <crystal>  <structure>
   <crystal>
    <varray name="basis" >
     <v>      10.41608216       0.00000000       0.00000000 </v>
     <v>       0.00000000       6.06983209      -0.00000005 </v>
     <v>       0.00000000      -0.00000178       4.74961887 </v>
    </varray>
    <i name="volume">    300.28928487 </i>
    <varray name="rec_basis" >
     <v>       0.09600539       0.00000000       0.00000000 <   <time name="dav">    0.   <time name="dav">    0.76    0.76<   <time name="dav">    0.   <time name="   <time name="dav">    0.74    0.74</time>
   <time name="total">    0.88    0.93</time>
   <energy>
    <i name="alphaZ">    483.10018356 </i>
    <i name="ewald">  -7973.01734753 </i>
    <i name="hartreedc">  -2978.67517764 </i>
    <i name="XCdc">    537.48128483 </i>
    <i name="pawpsdc">   729   <time name="dav">    0.   <time name="dav">    0.85    0.86</time>
   <time   <time name="dav">    0.74    0.75</time>
   <time name="total">    0.88    0.92</time>
   <energy>
    <i name="alphaZ">    483.10018356 </i>
    <i name="ewal   <time name="dav">    0.91    0.92</time>
   <time name="total">    1.10    1.15</time>
   <energy>
    <i name="e_fr_energy">   -189.10834225 </i>
    <i name="e_wo_entrp">   -1   <time name="dav">    0.75    0.75</time>
   <time name="total">    0.90    1.04</time>
   <energy   <time name="dav">    0.90    0.90</time>
   <time name="total">    1.10    1.18</time>
   <energy>
    <i name="e_fr_energy">   -189.10769280 </i>
    <i name="e_wo_entrp">   -189.10222248 </i>
    <i name="e_0_energy">   -189.10495764 </i>
   </energy>
  </scstep>
  <scstep>
   <time name="dav">    0.84    0.85</time>
   <time name="total">    0.99    1.00</time>
   <energy>
    <i name="alphaZ">    483.10018356 </i>
    <i name="ewald">  -7973.01734753 </i>
    <i name="hartreedc">  -2978.67517764 </i>
    <i name="XCdc">    537.48128483 </i>
    <i name="pawpsdc">   7295.23076160 </i>
    <i name="pawaedc">  -7421.91433481 </i>
    <i name="eentropy">     -0.00546493 </i>
    <i name="bandstr">   -940.64421791 </i>
    <i name="atom">  10809.33661609 </i>
    <i name="e_fr_energy">   -189.10769675 </i>
   <time name="dav">    0.73    0.73</time>
   <time name="total">    0.87    0.94</time>
   <energy>
    <i name="alph  <structure>
   <crystal>
    <varray name="basis" >
     <v>      10.41608216       0.00000000       0.00000000 </v>
     <v>       0.00000000       6.06983209      -0.00000005 </v>
     <v>       0.00000000      -0.00000178       4.74961887 </v>
    </varray>
    <i name="volume">    300.28928487 </i>
    <varray name="rec_basis" >
       <structure>
   <crystal>
    <varray name="basis" >
     <v>      10.41608216       0.00000000       0.00000000 </v>
     <v>       0.00000000       6.06983209      -0.00000005 </v>
     <v>        <structure>
   <crystal>
    <varray name="basis" >
     <v>      10.41608216       0.00000000       0.00000000 </v>
     <v>       0.00000000       6.06983209      -0.00000005 </v>
     <v>       0.00000000      -0.00000178       4.74961887 </v>
    </varray>
    <i name="volume">    300.28928487 </i>
    <varray name="rec_basis" >
     <v>       0.09600539       0.00000000       0.00000000 </v>
     <v>       0.00000000       0.16474920       0.00000006 </v>
     <v>       0.00000000       0.00000000       0.21054321 </v>
    </varray>
   </crystal>
   <varray name="positions" >
    <v>       0.09626517       0.25000000       0.74164519 </v>
    <v>       0.83454744       0.54587403       0.71525017 </v>
    <v>       0.83454747       0.95412686       0.71525019 </v>
    <v>       0.90373441       0.75000000       0.25835566 </v>
    <v>       0.04406249       0.75000000       0.70731105 </v>
    <v>       0.40373499       0.75000000       0.24164389 </v>
    <v>       0.16545062       0.04587448       0.28475123 </v>
    <v>       0.66545184       0.45412630       0.21524990 </v>
    <v>       0.33454923       0.54587495       0.78475110 </v>
    <v>       0.33454927       0.95412592       0.78475125 </v>
    <v>       0.95593366       0.25000000       0.29268951 </v>
    <v>       0.45593735       0.25000000       0.20730924 </v>
    <v>       0.54406643       0.75000000       0.79269077 </v>
    <v>       0.59626700       0.25000000       0.75835654 </v>
    <v>       0.66545182       0.04587373       0.21524979 </v>
    <v>       0.16545062       0.45412552       0.28475128 </v>
    <v>       0.09408828       0.25000000       0.41835234 </v>
    <v>       0.40591160       0.75000004       0.91835312 </v>
    <v>       0.59408626       0.25000000       0.08164681 </v>
    <v>       0.90591403       0.75000004       0.58164711 </v>
    <v>       0.00000011       0.00000048       0.00000011 </v>
    <v>       0.50000011       0.50000039       0.49999984 </v>
    <v>       0.50000011       0.99999961       0.49999983 </v>
    <v>       0.00000010       0.49999953       0.00000011 </v>
    <v>       0.78082965       0.24999999       0.52515616 </v>
    <v>       0.71917051       0.75000000       0.02515720 </v>
    <v>       0.28082951       0.25000000       0.97484281 </v>
    <v>       0.21917051       0.75000001       0.47484287 </v>
   </varray>
  </structure>
  <varray name="forces" >
   <v>       0.50444006       0.00001179       0.03475068 </v>
   <v>      -0.38661054      -0.69423625       0.46680299 </v>
   <v>      -0.38658522       0.69414582       0.46686820 </v>
   <v>      -0.51069050      -0.00000237      -0.02927975 </v>
   <v>       0.48599941      -0.00001556      -0.50067908 </v>
   <v>      -0.50582509       0.00000357       0.03410378 </v>
   <v>       0.38203119      -0.69668312      -0.47044617 </v>
   <v>       0.38779037       0.69426363       0.46970711 </v>
   <v>      -0.38228230      -0.69717983      -0.47140897 </v>
   <v>      -0.38220663       0.69707868      -0.47128002 </v>
   <v>      -0.49557639       0.00002982       0.50278334 </v>
   <v>      -0.48787883       0.00002387      -0.50281330 </v>
   <v>       0.49658105      -0.00002507       0.50287078 </v>
   <v>       0.51233397      -0.   <time name="dav">    1.19    1.20</time>
   <time name="total">    1.38    1.42</time>
   <energy>
    <i name="e_fr_energy">   -189.14574361 </i>
    <i name="e_wo_entrp">   -189.   <energy>
    <i name="e_fr_energy">   -189.14574361 </i>
    <i name="e_wo_entrp">   -189.1401   <time name="dav">    0.90    0.90</time>
   <time name="total">    1.09    1.12</time>
   <energy>
    <i name="e_fr_energy">   -189.1   <time name="total">    1.09    1.19</time>
   <energy>
    <i name="e_fr_energy">   -189.14536884 </i>
    <i name="e_wo_entrp">   -189.1395   <time name="dav">    0.81    0.81</time>
   <time name="total">    1.00    1.06</time>
   <energy>
    <i name="e_fr_energy">   -189.1   <time name="total">    1.02    1.03</time>
   <energy>
    <i name="e_fr_energy">   -189.14458393 </i>
    <i name="e_wo_entrp">   -189.1391   <time name="dav">    0.76    0.76</time>
   <time name="total">    0.90    0.92</time>
   <energy>
    <i name="alphaZ">    483.10018356 </i>
    <i name="ewald">  -7976.35069442 <   <energy>
    <i name="alphaZ">    483.10018356 </i>
    <i name="ewald">  -7976.35069442 </i>
    <i name="hartreedc">  -2975.98047162 </i>
    <i name="XCdc">    537.38059630 </i>
    <i name="pawpsdc">   7292.56319725 </i>
    <i name="pawaedc">  -7419.22943539 </i>
    <i name="eentropy">     <time name="   <time name="da   <time name="dav">    0.79    0.80</time>
   <time name="total">    1.00    1.16</time>
   <energy>
    <i    <time name="dav">    0.77    0.79</  <structure>
   <crystal>
    <varray name="basis" >
     <v>      10   <time name="dav">     <structure>
   <crystal>
    <varray name="basis" >
     <v>        <energy>
    <i name="alphaZ">    483.10018356 </i>
    <i name="ewald">  -7976.35069442 </i>
    <i name="hartreedc">  -2975.98047162 </i>
    <i name="XCdc">    537.38059630 </i>
    <i name="pawpsdc">   7292.56319725 </i>
    <i name="pawaedc">  -7419.22943539 </i>
    <i name="eentropy">     -0.00531843 </i>
    <i name="bands  <structure>
   <crys   <time name="dav">    0.87    0.88</time>
   <time name="total">    1.02    1.11</time>
   <energy>
    <i name="alphaZ">    483.10018356 </i>
    <i name="ewald">  -7976.35069442 </i>
    <i name="hartreedc">  -2975.98047162 </i>
    <i name="XCdc">    537.38059630 </i>
    <i name="pawpsdc">   7292.56319725 </i>
    <i na   <time name="dav">    0.75    0.75</time>
   <time name="total">    0.89    0.98</time>
   <energy>
    <i name="alphaZ">    483.10018356 </i>
    <i name="ewald">  -7976.35069442 </i>
    <i name="hartreedc   <energy>
    <i name="alphaZ">    483.10018356 </i>
    <i name="ewald">  -7976.35069442 </i   <time name="total">    1.  <structure>
   <crystal>
    <varray name="basis" >
     <v>      10.41608216       0.00000000       0.00000000 </v>
     <v>       0.00000000       6.06983209      -0.00000005 </v>
     <v>       0.0000000   <time name="dav">    0.77    0.78</time>
   <time name="total">    0.92    0.96</time>
   <energy>
    <i name="alph  <structure>
   <crystal>
    <varray name="basis" >
     <v>      10.41608216       0.00000000        <energy>
    <i name="alphaZ">    483.10018356 </i>
    <i name="ewald">  -7976.35069442 </i>
    <i name="hartreedc">  -2975.98047162 </i>
    <i name="XCdc">    537.38059630 </i>
    <i name="pawpsdc">   7292.56319725 </i>
    <i name="pawaedc">  -7419.22943539 </i>
    <i name="eentropy">        <time name="dav">    0.82    0.82</time>
   <time name="total">    1.01    1.06</time>
   <energy>
    <i name="e_fr_energy">   -189.144  <structure>
   <crystal>
    <varray name="basis" >
     <v>      10.41608216       0.00000000       0.00000000 <   <time name="dav">    0.   <time name="dav">    0.73    0.73</time>
   <time name="total   <energy>
    <i name="alphaZ">    483.10018356 </i>
    <i name="ewald">  -7976.35069442 </i>
    <i name="hartreedc">  -2975.98047162 </i>
    <i name="XCdc">    537.38059630 </i>
    <i name="pawpsdc">   7292.56319725 </i>
    <i name="pawaedc">  -7419.22943539 </i>
    <i name="eentropy">     -0.00531843 </i>
    <i name="bandstr">   -939.95916534 </i>
    <i name="atom">  10809.33661609 </i>
    <i name="e_fr_energy">   -189.14449198 </i>
    <i name="e_wo_entrp">   -189.13917356 </i>
    <i name="e_0_energy">   -189.14183277 </i>
   </energy>
  </scstep>
  <structure>
   <crystal>
    <varray name="basis" >
     <v>      10.41608216       0.00000000       0.00000000 </v>
     <v>       0.00000000       6.06983209      -0.00000005 </v>
     <v>       0.00000000      -0.00000178       4.74961887 </v>
    </varray>
    <i name="volume">    300.28928487 </i>
    <varray name="rec_basis" >
     <v>       0.09600539       0.00000000       0.00000000 </v>
     <v>       0.00000000       0.16474920       0.00000006 </v>
     <v>       0.00000000       0.00000000       0.21054321 </v>
    </varray>
   </crystal>
   <varray name="positions" >
    <v>       0.09641016       0.25000000       0.74165684 </v>
    <v>       0.83442087       0.54548483       0.71556476 </v>
    <v>       0.83442091       0.95451600       0.71556481 </v>
    <v>       0.90358859       0.75000000       0.25834469 </v>
    <v>       0.04422776       0.75000000       0.70700494 </v>
    <v>       0.40358998       0.75000000       0.24165516 </v>
    <v>       0.16557629       0.04548492       0.28443632 </v>
    <v>       0.66557819       0.45451606       0.21556501 </v>
    <v>       0.33442352       0.54548551       0.78443594 </v>
    <v>       0.33442358       0.95451530       0.78443618 </v>
    <v>       0.95576671       0.25000001       0.29299582 </v>
    <v>       0.45577187       0.25000001       0.20700250 </v>
    <v>       0.54423357       0.74999999       0.79299732 </v>
    <v>       0.59641301       0.25000000       0.75834526 </v>
    <v>       0.66557817       0.04548398       0.21556485 </v>
    <v>       0.16557630       0.45451507       0.28443642 </v>
    <v>       0.09414715       0.25000000       0.41849409 </v>
    <v>       0.40585264       0.75000007       0.91849462 </v>
    <v>       0.59414478       0.25000000       0.08150558 </v>
    <v>       0.90585562       0.75000006       0.58150563 </v>
    <v>       0.00000005       0.00000052       0.00000018 </v>
    <v>       0.50000019       0.50000066       0.49999974 </v>
    <v>       0.50000019       0.99999934       0.49999973 </v>
    <v>       0.00000004       0.49999949       0.00000019 </v>
    <v>       0.78078931       0.24999999       0.52497139 </v>
    <v>       0.71921083       0.75000001       0.02497180 </v>
    <v>       0.28078924       0.25000000       0.97502776 </v>
    <v>       0.21921089       0.75000001       0.47502777 </v>
   </varray>
  </structure>
  <varray name="forces" >
   <v>       0.51235431       0.00005635       0.03978400 </v>
   <v>      -0.32510406      -0.60665869       0.43923250 </v>
   <v>      -0.32500141       0.60654801       0.43920893 </v>
   <v>      -0.49390256       0.00001500      -0.05459420 </v>
   <v>       0.41547251       0.00001582      -0.50668525 </v>
   <v>      -0.51577411      -0.00001717       0.03984957 </v>
   <v>       0.33351596      -0.59555372      -0.43264856 </v>
   <v>       0.32769423       0.60541507       0.44148872 </v>
   <v>      -0.33746258      -0.59691383      -0.43688785 </v>
   <v>      -0.33753527       0.59693807      -0.43689683 </v>
   <v>      -0.39061495      -0.00007472       0.50566002 </v>
   <v>      -0.42132889      -0.00004951      -0.50600326 </v>
     <time name="dav">    1.15    1.16</time>
   <time name="total">    1.35    1.42</time>
   <energy>
    <i name="e_fr_energy">   -189.18568461 </i>
    <i name="e_wo_entrp">   -189.18020975 </i>
    <i name="e_0_energy">   -189.18294718 </i>
   </energy>
  </scstep>
  <scstep>
   <time name="dav">    0.85    0.85</time>
   <time name="total">    1.04    1.07</time>
   <energy>
    <i name="e_fr_energy">   -189.18567231 </i>
    <i name="e_wo_entrp">   -189.18010110 </i>
    <i name="e_0_energy">   -189.18288671 </i>
   </energy>
  </scstep>
  <scstep>
   <time name="dav">    0.76    0.76</time>
   <time name="total">    0.94    0.99</time>
   <energy>
    <i name="e_fr_energy">   -189.18503456 </i>
    <i name="e_wo_entrp">   -189.17974046 </i>
    <i name="e_0_energy">   -189.18238751 </i>
   </energy>
  </scstep>
  <scstep>
   <time name="dav">    0.68    0.69</time>
   <time name="total">    0.82    0.89</time>
   <energy>
    <i name="alphaZ">    483.10018356 </i>
    <i name="ewald">  -7980.31556464 </i>
    <i name="hartreedc">  -2972.76376308 </i>
    <i name="XCdc">    537.24923551 </i>
    <i name="pawpsdc">   7289.33444545 </i>
    <i name="pawaedc">  -7415.98412470 </i>
    <i name="eentropy">     -0.00528243 </i>
    <i name="bandstr">   -939.13678009 </i>
    <i name="atom">  10809.33661609 </i>
    <i name="e_fr_energy">   -189.18503433 </i>
      <time name="dav">    0.   <time name="dav   <time name="total">       <time name="total   <energy>
    <i name="a  <structure>
   <crystal>
    <varray name="basis" >
     <v>      10.41608216       0.00000000       0.00000000 </v>
     <v>       0.00000000       6.06983209      -0.00000005 </v>
     <v>       0.00000000      -0.00000178       4.74961887 </v>
    </varray>
    <i name="volume">    300.28928487 </i>
    <varray name="rec_basis" >
     <v>       0.09600539       0.00000000       0.00000000 </v>
     <v>       0.00000000       0.16474920        <time name="dav">    0.   <time name="dav">    0.   <time name="dav">    0.   <time name="dav">    0.76    0.76</time>
   <time name="total">    0.96    0.99</time>
   <energy>
    <i name="e_fr_energy">   -189.18503456 </i>
   <time name="dav">    0.65    0.66</time>
   <time   <time name="dav">    0.   <time name="dav">    0.   <time name="dav   <time   <time name="dav">    0.67    0.67</time>
   <time name="total">    0.81    0.83</time>
   <energy>
    <i name="alphaZ">    483.10018356 </i>
    <i name="ewald">  -7980.31556464 </i>
    <i name="hartreedc">  -2972.76376308 </i>
    <i name="XCdc">    537.24923551 </i>
    <i name="pawpsdc">   7289.33444545 </i>
    <i name="pawaedc">  -7415.98412470 </i>
    <i name="eentropy">     -0.00528243 </i>
    <i name="bandstr">   -939.13678009 </i>
    <i name="atom">  10809.33   <energy>
    <i name="e_fr_energy">   -189.185  <structur   <time name="dav">    0.66    0.66</tim  <structur   <time name="  <structure>
   <crystal>
    <varra   <time name="  <structure>
   <crystal>
    <varray name="basis" >
     <v>      10.41608216       0.00000000       0.00000000 </v>
     <v>       0.00000000       6.06983209      -0.00000005 </v>
     <v>       0.00000000      -0.00000178       4.74961887 </v>
    </varray>
    <i name="volume">      <time name="dav">    0.65    0.65</time>
   <time name="tota   <time name="dav">    0.6   <energy>
    <i name=   <time name="dav">    0.   <time name="dav">    0.76    0.78</time>
   <time name="total">    0.96    1.02</time>
   <energy>
    <i name="e_fr_e   <energy>
    <i name="alphaZ">    483.10018356 </i>
    <i name="ewald">  -798   <time name="dav">    0.68    0.68</time>
   <time   <time name="dav">    0.   <time name="dav">    0.67    0.68</time>
   <time name="total">    0.82    0.86</time>
   <energy>
    <i name="alphaZ">    483.10018356 </i>
    <i name="ewald">  -7980.31556464 </i>
    <i name="hartreedc">  -2972.76376308 </i>
    <i name="XCdc">    537.24923551 </i>
    <i name="pawpsdc">   7289.33444545 </i>
    <i name="pawaedc"   <time name="dav">    0.64    0.65</time>
   <time name="total">    0.79    0.83</time>
   <energy>
    <i name="alphaZ">    483.100   <time name="dav">    0.68    0.69</time>
   <time name="total">    0.83    0.84</time>
   <energy>
    <i name="alphaZ">    483.10018356 </i>
    <i name="ew  <structure>
   <crystal>  <structure>
   <crystal>
    <varray name="basis" >
     <v>      10.41608216       0.00000000       0.00000000 </v>
     <v>       0.00000000       6.06983209      -0.00000005 </v>
     <v>       0.00000000      -0.00000178       4.74961887 </v>
    </varray>
    <i name="volume">    300.28928487 </i>
    <varray name="rec_basis" >
    <structure>
   <crystal>
[...]
   <v>       0.49524919       0.00008391      -0.70274560 </v>
   <v>       0.03233236      -0.00008276       0.10598873 </v>
   <v>       0.49134803       0.00000388       0.70430121 </v>
   <v>       1.01789594      -1.70141775      -0.21386259 </v>
   <v>       1.02332434       1.70816081       0.21856719 </v>
   <v>      -1.01831314      -1.69853913      -0.21685130 </v>
   <time name="dav">    0.58    0.59</time>
   <time name="total">    0.71    0.72</time>
   <energy>
    <i name="alphaZ">    483.10018356 </i>
    <i name="ewald">  -7844.79675195 </i>
    <i name=   <time name="dav">    1.12    1.13</time>
   <time name="total">    1.30    1.31</time>
   <energy>
    <i name="e_fr_energy">     <time name="dav">    0.92    0.92</time>
   <time name="total">    1.09    1.10</time>
   <energy>
    <i name="e_fr_energy">   -189.03119066 </i>
   <time name="dav">    0.79    0.79</time>
   <time name="total">    0.96    0.97</time>
/i>
   </energy>
  </scstep>
  <scstep>
   <time name="dav">    0.71    0.71</time>
   <time name="total">    0.88    0.89</time>
   <energy>
    <i name="e_fr_energy">   -189.03108709 </i>
    <i name="e_wo_entrp">   -189.03058390 </i>
    <i name="e_0_energy">   -189.03083550 </i>
   </energy>
  </scstep>
  <scstep>
   <time name="dav">    0.59    0.59</time>
   <time name="total">    0.71    0.71</time>
   <energy>
    <i name="alphaZ">    483.10018356 </i>
    <i name="ewald">  -7844.79675195 </i>
    <i name="hartreedc">  -3105.22715018 </i>
    <i name="XCdc">    539.11565500 </i>
    <i name="pawpsdc">   7357.82529135 </i>
    <i name="pawaedc">  -7485.13620141 </i>
    <i name="eentropy">     -0.00050296 </i>
    <i name="bandstr">   -943.24819985 </i>
    <i name="atom">  10809.33661609 </i>
    <i name="e_fr_energy">   -189.03106035 </i>
    <i name="e_wo_entrp">   -189.03055739 </i>
    <i name="e_0_energy">   -189.03080887 </i>
   </energy>
  </scstep>
  <structure>
   <crystal>
    <varray name="basis" >
     <v>      10.41608216       0.00000000       0.00000000 </v>
     <v>       0.00000000       6.06983209      -0.00000005 </v>
     <v>       0.00000000      -0.00000178       4.74961887 </v>
    </varray>
    <i name="volume">    300.28928487 </i>
    <varray name="rec_basis" >
     <v>       0.09600539       0.00000000       0.00000000 </v>
     <v>       0.00000000       0.16474920       0.00000006 </v>
     <v>       0.00000000       0.00000000       0.21054321 </v>
    </varray>
   </crystal>
   <varray name="positions" >
    <v>       0.11207800       0.25000100       0.75005788 </v>
    <v>       0.83643553       0.55072231       0.71745242 </v>
    <v>       0.83643697       0.94927881       0.71745364 </v>
    <v>       0.88796442       0.74999932       0.24992271 </v>
    <v>       0.04247512       0.75000005       0.67998305 </v>
    <v>       0.38791082       0.74999850       0.25008027 </v>
    <v>       0.16358785       0.05070552       0.28252281 </v>
    <v>       0.66356288       0.44926851       0.21747389 </v>
    <v>       0.33640076       0.55071167       0.78254413 </v>
    <v>       0.33640033       0.94929008       0.78254574 </v>
    <v>       0.95755150       0.24999850       0.32000971 </v>
    <v>       0.45753536       0.24999988       0.18000886 </v>
    <v>       0.54245094       0.75000024       0.82008456 </v>
    <v>       0.61205205       0.25000064       0.74995579 </v>
    <v>       0.66356268       0.05073078       0.21747267 </v>
    <v>       0.16358827       0.44929354       0.28252138 </v>
    <v>       0.09852626       0.24999966       0.43232519 </v>
    <v>       0.40147318       0.74999974       0.93233952 </v>
    <v>       0.59850710       0.24999971       0.06770980 </v>
    <v>       0.90149619       0.74999986       0.56765798 </v>
    <v>       0.00001668       0.99999863       0.99995501 </v>
    <v>       0.49999307       0.50003839       0.50002020 </v>
    <v>       0.49999320       0.99996133       0.50001874 </v>
    <v>       0.00001829       0.50000415       0.99995211 </v>
    <v>       0.77614874       0.25000026       0.47994050 </v>
    <v>       0.72387880       0.75000025       0.97998537 </v>
    <v>       0.27611651       0.25000019       0.02002905 </v>
    <v>       0.22385393       0.75000032       0.52000879 </v>
   </varray>
  </structure>
  <varray name="forces" >
   <v>      -0.49339388       0.00002679       0.70337141 </v>
   <v>      -1.01917481      -1.70456590       0.21533918 </v>
   <v>      -1.01918473       1.70452144       0.21529114 </v>
   <v>       0.49524919       0.00008391      -0.70274560 </v>
   <v>       0.03233236      -0.00008276       0.10598873 </v>
   <v>       0.49134803       0.00000388       0.70430121 </v>
   <v>       1.01789594      -1.70141775      -0.21386259 </v>
   <v>       1.02332434       1.70816081       0.21856719 </v>
   <v>      -1.01831314      -1.69853913      -0.21685130 </v>
   <v>      -1.01817736       1.69823760      -0.21671634 </v>
   <v>      -0.03024299       0.00002776      -0.10607005 </v>
   <v>      -0.03326125       0.00000237       0.10755706 </v>
   <v>       0.03010820      -0.00003867      -0.10671527 </v>
   <v>      -0.49073567      -0.00003391      -0.69950467 </v>
   <v>       1.02340811      -1.70826928       0.21862983 </v>
   <v>       1.01776086       1.70139592      -0.21389603 </v>
   <v>      -0.88875904       0.00003588      -0.11506428 </v>
   <v>       0.88391148       0.00026571      -0.11187861 </v>
   <v>      -0.89137895       0.00014857       0.09481468 </v>
   <v>       0.89148383      -0.00006396       0.10973571 </v>
   <v>       0.00029970      -0.00024663       0.00047159 </v>
   <v>       0.00007300      -0.00174102       0.00049142 </v>
   <v>       0.00008151       0.00175142       0.00051803 </v>
   <v>       0.00031435       0.00020188       0.00047710 </v>
   <v>      -0.18983010      -0.00001674       0.90202993 </v>
   <v>       0.18224207      -0.00001362       0.89874332 </v>
   <v>      -0.18304585      -0.00003414      -0.89994205 </v>
   <v>       0.18817212       0.00000160      -0.90060209 </v>
  </varray>
  <energy>
   <i name="e_fr_energy">   -189.03106035 </i>
   <i name="e_wo_entrp">   -189.03055739 </i>
   <i name="e_0_energy">   -189.03080887 </i>
   <i name="kinetic">      0.47354099 </i>
   <i name="lattice kinetic">      0.00000000 </i>
   <i name="nosepot">     -0.54017015 </i>
   <i name="nosekinetic">      0.06197311 </i>
   <i name="total">   -189.03571640 </i>
  </energy>
  <time name="totalsc">    7.73    7.85</time>
 </calculation>
   1.15</time>
   <energy>
    <i name="e_fr_energy">   -189.03136176 </i>
    <i name="e_wo_entrp">   -189.03085030 </i>
    <i name="e_0_energy">   -189.03110603 </i>
   </energy>
  </scstep>
  <scstep>
   <time name="dav">    0.84    0.84</time>
   <time name="total">    1.00    1.01</time>
   <energy>
    <i name="e_fr_energy">   -189.03119066 </i>
    <i name="e_wo_entrp">   -189.03068539 </i>
    <i name="e_0_energy">   -189.03093803 </i>
   </energy>
  </scstep>
  <scstep>
   <time name="dav">    0.66    0.66</time>
   <time name="total">    0.82    0.82</time>
   <energy>
    <i name="e_fr_energy">   -189.03108709 </i>
    <i name="e_wo_entrp">   -189.03058390 </i>
    <i name="e_0_energy">   -189.03083550 </i>
   </energy>
  </scstep>
  <scstep>
   <time name="dav">    0.54    0.54</time>
   <time name="total">    0.66    0.66</time>
   <energy>
    <i name="alphaZ">    483.10018356 </i>
    <i name="ewald">  -7844.79675195 </i>
    <i name="hartreedc">  -3105.22715018 </i>
    <i name="XCdc">    539.11565500 </i>
    <i name="pawpsdc">   7357.82529135 </i>
    <i name="pawaedc">  -7485.13620141 </i>
    <i name="eentropy">     -0.00050296 </i>
    <i name="bandstr">   -943.24819985 </i>
    <i name="atom">  10809.33661609 </i>
    <i name="e_fr_energy">   -189.03106035 </i>
    <i name="e_wo_entrp">   -189.03055739 </i>
    <i name="e_0_energy">   -189.03080887 </i>
   </energy>
  </scstep>
  <structure>
   <crystal>
    <varray name="basis" >
     <v>      10.41608216       0.00000000       0.00000000 </v>
     <v>       0.00000000       6.06983209      -0.00000005 </v>
     <v>       0.00000000      -0.00000178       4.74961887 </v>
    </varray>
    <i name="volume">    300.28928487 </i>
    <varray name="rec_basis" >
     <v>       0.09600539       0.00000000       0.00000000 </v>
     <v>       0.00000000       0.16474920       0.00000006 </v>
     <v>       0.00000000       0.00000000       0.21054321 </v>
    </varray>
   </crystal>
   <varray name="positions" >
    <v>       0.11207800       0.25000100       0.75005788 </v>
    <v>       0.83643553       0.55072231         <time name="dav">    0.52    0.52</time>
   <time name="total">    0.66    0.66</time>
     0.88796442       0.74999932       0.24992271 </v>
    <v>       0.04247512       0.75000005       0.67998305 </v>
    <v>       0.38791082       0.74999850       0.25008027 </v>
    <v>       0.16358785       0.05070552       0.28252281 </v>
    <v>       0.66356288       0.44926851       0.21747389 </v>
    <v>       0.33640076       0.55071167       0.78254413 </v>
    <v>       0.33640033       0.94929008       0.78254574 </v>
    <v>       0.95755150       0.24  <structure>
   <crystal>
    <varray name="basis" >
     <v>      10.41608216       0.00000000       0.00000000 </v>
     <v>       0.00000000       6.06983209      -0.00000005 </v>
     <v>       0.00000000      -0.00000178       4.74961887 </v>
    </varray>
    <i name="volume">    300.28928487 </i>
    <varray name="rec_basis" >
     <v>       0.09600539       0.00000000       0.00000000 </v>
     <v>       0.00000000       0.16474920       0.00000006 </v>
     <v>       0.00000000       0.00000000       0.21054321 </v>
    </varray>
   </crystal>
   <varray name="positions" >
    <v>       0.11258029       0.25000087       0.75043430 </v>
    <v>       0.83630493       0.54978037       0.71693058 </v>
    <v>       0.83630628       0.95022063       0.71693153 </v>
    <v>       0.88746173       0.74999939       0.24954299 </v>
    <v>       0.04273857       0.75000003       0.68107234 </v>
    <v>       0.38740911       0.74999862       0.25045842 </v>
    <v>       0.16371694       0.04976166       0.28304571 </v>
    <v>       0.66369265       0.45020801       0.21695335 </v>
    <v>       0.33627055       0.54977388       0.78306541 </v>
    <v>       0.33627011       0.95022771       0.78306699 </v>
    <v>       0.95728873       0.24999856       0.31891858 </v>
    <v>       0.45727363       0.24999990       0.18110016 </v>
    <v>       0.54271402       0.75000022       0.81899690 </v>
    <v>       0.61255542       0.25000061       0.74957456 </v>
    <v>       0.66369246       0.04979137       0.21695246 </v>
    <v>       0.16371726       0.45023741       0.28304402 </v>
    <v>       0.09859306       0.24999966       0.43231706 </v>
    <v>       0.40140612       0.74999983       0.93233299 </v>
    <v>       0.59857446       0.24999966       0.06771612 </v>
    <v>       0.90142839       0.74999986       0.56767015 </v>
    <v>       0.00001629       0.99999858       0.99995538 </v>
    <v>       0.49999395       0.50003459       0.50002079 </v>
    <v>       0.49999403       0.99996503       0.50001944 </v>
    <v>       0.00001791       0.50000417       0.99995254 </v>
    <v>       0.77598275       0.25000027       0.48004261 </v>
    <v>       0.72404430       0.75000028       0.98008566 </v>
    <v>       0.27595135       0.25000017       0.01992699 </v>
    <v>       0.22402008       0.75000032       0.51990643 </v>
   </varray>
  </structure>
  <varray name="forces" >
   <v>      -0.55561470       0.00001092       0.59125291 </v>
   <v>      -0.94466007      -1.52900636       0.18501923 </v>
   <v>      -0.94457842       1.52877400       0.18485022 </v>
   <v>       0.54897125       0.00009376      -0.59380049 </v>
   <v>      -0.15538365      -0.00001289       0.03970955 </v>
   <v>       0.55869525      -0.00002885       0.58934891 </v>
   <v>       0.94037396      -1.53187243      -0.18443684 </v>
   <v>       0.94787773       1.53886656       0.18596447 </v>
   <v>      -0.93942449      -1.53352007      -0.18301379 </v>
   <v>      -0.93922543       1.53322533      -0.18289357 </v>
   <v>       0.15452201       0.00007083      -0.04010782 </v>
   <v>       0.15055834      -0.00000198       0.04019935 </v>
   <v>      -0.14622232       0.00002843      -0.03807296 </v>
   <v>      -0.55528807      -0.00003855      -0.59554273 </v>
   <v>       0.94797090      -1.53891898       0.18601017 </v>
   <v>       0.94023495       1.53170333      -0.18425935 </v>
   <v>      -0.88728875       0.00007115      -0.14659161 </v>
   <v>       0.88383147       0.00020772      -0.14002540 </v>
   <v>      -0.89228159       0.00012059          <time name="dav">    0.57    0.57</time>
   <time name="total">    0.68    0.68</time>
   <energy>
    <i name="alphaZ">    483.10018356 </i>
    <i name="ewald">  -7853.58867718 </i>
    <i name="hartreedc">  -3097.65402569 </i>
    <i name="XCdc">    538.88410939 </i>
    <i name="pawps   <time name="dav">    0.95    0.96</time>
   <time name="total">    1.09    1.10</time>
   <energy>
    <i name="alphaZ">    483.10018356 </i>
    <i name="ewald">  -7853.58867718 </i>
    <i name="hartreedc">  -3097.63627472 </i>
    <i name="XCdc">    538.88224749 </i>
    <i name="pawpsdc">   7350.50284517 </i>
    <i name="pawaedc">  -7477.76930281 </i>
    <  <structure>
   <crystal>
    <varray name="basis" >
     <v>      10.41608216       0.00000000       0.00000000 </v>
     <v>       0.00000000       6.06983209      -0.00000005 </v>
     <v>       0.00000000      -0.00000178       4.74961887 </v>
    </varray>
    <i name="volume">    300.28928487 </   <time name="dav">    0.73    0.73</time>
   <time name="total">    0.86    0.86</time>
ucture>
   <crystal>
    <varray name="basis" >
     <v>      10.41608216       0.00000000       0.00000000 </v>
     <v>       0.00000000       6.06983209      -0.   <time name="dav">    0.64    0.64</time>
   <time name="total">    0.77    0.77</time>
   <energy>
    <i name="e_fr_energy">   -189.18881267 </i>
    <i name="e_wo_entrp">   -189.18833005 </i>
    <i name="e_0_energy">   -189.18857136 </i>
   </energy>
  </scstep>
  <scstep>
   <time name="dav">    0.44    0.44</time>
   <time name="total">    0.56    0.56</time>
rray>
   </crystal>
   <varray name="positions" >
    <v>       0.11258029       0.25000087       0.75043430 </v>
    <v>       0.83630493       0.54978037       0.71693058 </v>
    <v>       0.83630628       0.95022063       0.71693153 </v>
    <v>       0.88746173       0.74999939       0.24954299 </v>
    <v>       0.04273857       0.75000003       0.68107234 </v>
    <v>       0.38740911       0.74999862       0.25045842 </v>
    <v>       0.16371694       0.04976166       0.28304571 </v>
    <v>       0.66369265       0.45020801       0.21695335 </v>
    <v>       0.33627055       0.54977388       0.78306541 </v>
    <v>       0.33627011       0.95022771       0.78306699 </v>
    <v>       0.95728873       0.24999856       0.31891858 </v>
    <v>       0.45727363       0.24999990       0.18110016 </v>
    <v>       0.54271402       0.75000022       0.81899690 </v>
    <v>       0.61255542       0.25000061       0.74957456 </v>
    <v>       0.66369246       0.04979137       0.21695246 </v>
    <v>       0.16371726       0.45023741       0.28304402 </v>
    <v>       0.09859306       0.24999966       0.43231706 </v>
    <v>       0.40140612       0.74999983       0.93233299 </v>
    <v>       0.59857446       0.24999966       0.06771612 </v>
    <v>       0.90142839       0.74999986       0.56767015 </v>
    <v>       0.00001629       0.99999858       0.99995538 </v>
    <v>       0.49999395       0.50003459       0.50002079 </v>
    <v>       0.49999403       0.99996503       0.50001944 </v>
    <v>       0.00001791       0.50000417       0.99995254 </v>
    <v>       0.77598275       0.25000027       0.48004261 </v>
    <v>       0.72404430       0.75000028       0.98008566 </v>
    <v>       0.27595135       0.25000017       0.01992699 </v>
    <v>       0.22402008       0.75000032       0.51990643 </v>
   </varray>
  </structure>
  <varray name="forces" >
   <v>      -0.55561470       0.00001092       0.59125291 </v>
   <v>      -0.94466007      -1.52900636       0.18501923 </v>
   <v>      -0.94457842       1.52877400       0.18485022 </v>
   <v>       0.54897125       0.00009376      -0.59380049 </v>
   <v>      -0.15538365      -0.00001289       0.03970955 </v>
   <v>       0.55869525      -0.00002885       0.58934891 </v>
   <v>       0.94037396      -1.53187243      -0.18443684 </v>
   <v>       0.94787773       1.53886656       0.18596447 </v>
   <v>      -0.93942449      -1.53352007      -0.18301379 </v>
   <v>      -0.93922543       1.53322533      -0.18289357 </v>
   <v>       0.15452201       0.00007083      -0.04010782 </v>
   <v>       0.15055834      -0.00000198       0.04019935 </v>
   <v>      -0.14622232       0.00002843      -0.03807296 </v>
   <v>      -0.55528807      -0.00003855      -0.59554273 </v>
   <v>       0.94797090      -1.53891898       0.18601017 </v>
   <v>       0.94023495       1.53170333      -0.18425935 </v>
   <v>      -0.88728875       0.00007115      -0.14659161 </v>
   <v>       0.88383147       0.00020772      -0.14002540 </v>
   <v>      -0.89228159       0.00012059       0.14150742 </v>
   <v>       0.88823905       0.00017465       0.14528124 </v>
   <v>      -0.00022602      -0.00019339       0.00011657 </v>
   <v>      -0.00038573      -0.00025689      -0.00090814 </v>
   <v>      -0.00036798       0.00026662      -0.00088281 </v>
   <v>      -0.00015325       0.00014609       0.00016371 </v>
   <v>      -0.16091843       0.00004810       0.88986621 </v>
   <v>       0.15786016       0.00003228       0.88479429 </v>
   <v>      -0.15727453      -0.00007043      -0.88621344 </v>
   <v>       0.15980361       0.00003634      -0.88696303 </v>
  </varray>
  <energy>
   <i name="e_fr_energy">   -189.10665917 </i>
   <i name="e_wo_entrp">   -189.10617951 </i>
   <i name="e_0_energy">   -189.10641934 </i>
   <i name="kinetic">      0.58064790 </i>
   <i name="lattice kinetic">      0.00000000 </i>
   <i name="nosepot">     -0.60319920 </i>
   <i name="nosekinetic">      0.09341009 </i>
   <i name="total">   -189.03580037 </i>
  </energy>
  <time name="totalsc">    4.98    5.13</time>
 </calculation>
 <calculation>
  <scstep>
   <time name="dav">    0.79    0.79</time>
   <time name="total">    0.92    0.92</time>
   <energy>
    <i name="alphaZ">    483.10018356 </i>
    <i name="ewald">  -7864.02548747 </i>
    <i name="hartreedc">  -3088.65885368 </i>
    <i name="XCdc">    538.60733693 </i>
    <i name="pawpsdc">   7341.94146677 </i>
    <i name="pawaedc">  -7469.15859691 </i>
    <i name="eentropy">     -0.00046858 </i>
    <i name="bandstr">   -940.32946454 </i>
    <i name="atom">  10809.33661609 </i>
    <i name="e_fr_energy">   -189.18726783 </i>
    <i name="e_wo_entrp">   -189.18679926 </i>
    <i name="e_0_energy">   -189.18703354 </i>
   </energy>
  </scstep>
  <scstep>
   <time name="dav">    0.71    0.72</time>
   <time name="total">    0.84    0.85</time>
   <energy>
    <i name="e_fr_energy">   -189.18821147 </i>
    <i name="e_wo_entrp">   -189.18774018 </i>
    <i name="e_0_energy">   -189.18797583 </i>
   </energy>
  </scstep>
  <scstep>
   <time name="dav">    0.68    0.68</time>
   <time name="total">    0.81    0.81</time>
   <energy>
    <i name="e_fr_energy">   -189.18881267 </i>
    <i name="e_wo_entrp">   -189.18833005 </i>
    <i name="e_0_energy">   -189.18857136 </i>
   </energy>
  </scstep>
  <scstep>
   <time name="dav">    0.46    0.46</time>
   <time name="total">    0.59    0.59</time>
