MD-OXC                                  
           1
    10.416082    0.000000    0.000000
     0.000000    6.069832   -0.000000
     0.000000   -0.000002    4.749619
   O    P    Li   Fe
    16     4     4     4
Direct configuration=     1
   0.09601913  0.25000000  0.74163265
   0.83477364  0.54656912  0.71470121
   0.83477364  0.95343188  0.71470121
   0.90398187  0.75000000  0.25836835
   0.04376453  0.75000000  0.70782547
   0.40398087  0.75000000  0.24163165
   0.16522636  0.04656912  0.28529979
   0.66522636  0.45343088  0.21470021
   0.33477364  0.54656912  0.78529979
   0.33477364  0.95343188  0.78529979
   0.95623547  0.25000000  0.29217553
   0.45623547  0.25000000  0.20782447
   0.54376453  0.75000000  0.79217653
   0.59601913  0.25000000  0.75836935
   0.66522636  0.04656912  0.21470021
   0.16522636  0.45343088  0.28529979
   0.09398981  0.25000000  0.41808798
   0.40601019  0.75000000  0.91808898
   0.59398981  0.25000000  0.08191002
   0.90601019  0.75000000  0.58191102
   0.00000000  0.00000000  0.00000000
   0.50000000  0.50000000  0.50000000
   0.50000000  0.00000000  0.50000000
   0.00000000  0.50000000  0.00000000
   0.78089765  0.25000000  0.52546944
   0.71910235  0.75000000  0.02547144
   0.28089765  0.25000000  0.97452956
   0.21910235  0.75000000  0.47452956
Direct configuration=     2
   0.09603375  0.25000000  0.74163290
   0.83475937  0.54652561  0.71473518
   0.83475937  0.95347537  0.71473517
   0.90396670  0.75000000  0.25836798
   0.04378277  0.75000000  0.70779439
   0.40396629  0.75000000  0.24163202
   0.16524009  0.04652588  0.28526618
   0.66524049  0.45347438  0.21473413
   0.33475985  0.54652593  0.78526601
   0.33475986  0.95347506  0.78526602
   0.95621613  0.25000000  0.29220653
   0.45621723  0.25000000  0.20779337
   0.54378388  0.75000000  0.79220748
   0.59603435  0.25000000  0.75836894
   0.66524049  0.04652563  0.21473412
   0.16524009  0.45347412  0.28526617
   0.09399597  0.25000000  0.41810498
   0.40600404  0.75000000  0.91810596
   0.59399540  0.25000000  0.08189320
   0.90600464  0.75000000  0.58189407
   0.00000003  0.00000016 -0.00000001
Direct configuration=     3
   0.09607873  0.25000000  0.74163492
   0.83471676  0.54639490  0.71483712
   0.83471676  0.95360607  0.71483711
   0.90392111  0.75000000  0.25836636
   0.04383863  0.75000000  0.70770028
   0.40392142  0.75000000  0.24163408
   0.16528Direct configuration=     3
   0.09607873  0.25000000  0.74163492
   0.83471676  0.54639490  0.71483712
   0.83471676  0.95360607  0.71483711
   0.90392111  0.75000000  0.25836636
   0.04383863  0.75000000  0.70770028
   0.40392142  0.75000000  0.24163408
   0.16528208  0.04639551  0.28516396
   0.66528296  0.45360473  0.21483642
   0.33471789  0.54639554  0.78516423
   0.33471790  0.95360543  0.78516427
   0.95615876  0.25000000  0.29230039
   0.45616135  0.25000000  0.20769922
   0.54384120  0.75000000  0.79230129
   0.59608003  0.25000000  0.75836716
   0.66528295  0.04639529  0.21483638
   0.16528208  0.45360449  0.28516395
   0.09401409  0.25000000  0.41815550
   0.40598595  0.75000001  0.91815654
   0.59401277  0.25000000  0.08184296
   0.90598735  0.75000001  0.58184358
   0.00000006  0.00000036  0.00000004
Direct configuration=     4
   0.09615551  0.25000000  0.74163839
   0.83464622  0.54617760  0.71500824
   0.83464623  0.95382333  0.71500824
   0.90384452  0.75000000  0.25836249
   0.04393247  0.75000000  0.70754070
   0.40384459  0.75000000  0.24163737
   0.16535Direct configuration=     4
Direct configuration=     5
   0.09626517  0.25000000  0.74164519
   0.83454744  0.54587403  0.71525017
   0.83454747  0.95412686  0.71525019
   0.90373441  0.75000000  0.25835566
   0.04406249  0.75000000  0.70731105
   0.40373499  0.75000000  0.24164389
   0.16545062  0.04587448  0.28475123
   0.66545184  0.45412630  0.21524990
   0.33454923  0.54587495  0.78475110
   0.33454927  0.95412592  0.78475125
   0.95593366  0.25000000  0.29268951
   0.45593735  0.25000000  0.20730924
   0.54406643  0.75000000  0.79269077
   0.59626700  0.25000000  0.75835654
   0.66545182  0.04587373  0.21524979
   0.16545062  0.45412552  0.28475128
   0.09408828  0.25000000  0.41835234
   0.40591160  0.75000004  0.91835312
   0.59408626  0.25000000  0.08164681
   0.90591403  0.75000004  0.58164711
   0.00000011  0.00000048  0.00000011
   0.50000011  0.50000039  0.49999984
   0.50000011 -0.00000039  0.49999983
   0.00000010  0.49999953  0.00000011
   0.78082965  0.24999999  0.52515616
   0.71917051  0.75000000  0.02515720
   0.28082951  0.25000000  0.97484281
   0.21917Direct configuration=     5
Direct configuration=     6
   0.09641016  0.25000000  0.74165684
   0.83442087  0.54548483  0.71556476
   0.83442091  0.95451600  0.71556481
   0.90358859  0.75000000  0.25834469
   0.04422776  0.75000000  0.70700494
   0.40358998  0.75000000  0.24165516
   0.16557629  0.04548492  0.28443632
   0.66557819  0.45451606  0.21556501
   0.33442352  0.54548551  0.78443594
   0.33442358  0.95451530  0.78443618
   0.95576671  0.25000001  0.29299582
   0.45577187  0.25000001  0.20700250
   0.54423357  0.74999999  0.79299732
   0.59641301  0.25000000  0.75834526
   0.66557817  0.04548398  0.21556485
   0.16557630  0.45451507  0.28443642
   0.09414715  0.25000000  0.41849409
   0.40585264  0.75000007  0.91849462
   0.59414478  0.25000000  0.08150558
   0.90585562  0.75000006  0.58150563
   0.00000005  0.00000052  0.00000018
   0.50000019  0.50000066  0.49999974
   0.50000019 -0.00000066  0.49999973
   0.00000004  0.49999949  0.00000019
   0.78078931  0.24999999  0.52497139
   0.71921083  0.75000001  0.02497180
   0.28078924  0.25000000  0.97502776
   0.21921Direct configuration=     6
Direct configuration=     7
   0.09659456  0.25000000  0.74167440
   0.83426717  0.54500977  0.71595600
   0.83426723  0.95499099  0.71595608
   0.90340439  0.75000000  0.25832590
   0.04442788  0.75000000  0.70661386
   0.40340535  0.75000000  0.24167233
   0.16572952  0.04501062  0.28404559
   0.66573180  0.45499158  0.21595711
   0.33427000  0.54501120  0.78404439
   0.33427007  0.95498955  0.78404473
   0.95556627  0.25000000  0.29338699
   0.45557114  0.25000001  0.20661084
   0.54443450  0.75000000  0.79338910
   0.59659755  0.25000000  0.75832637
   0.66573177  0.04500847  0.21595687
   0.16572952  0.45498936  0.28404576
   0.09422285  0.25000000  0.41866038
   0.40577671  0.75000010  0.91866061
   0.59422038  0.25000000  0.08133982
   0.90578021  0.75000009  0.58133961
  -0.00000003  0.00000042  0.00000033
   0.50000030  0.50000088  0.49999976
   0.50000030 -0.00000087  0.49999975
  -0.00000003  0.49999959  0.00000033
   0.78073800  0.24999999  0.52473691
   0.71926216  0.75000001  0.02473661
   0.28073804  0.25000000  0.97526262
   0.21926Direct configuration=     7
Direct configuration=     8
   0.09682175  0.25000001  0.74170153
   0.83408652  0.54445148  0.71642723
   0.83408660  0.95554921  0.71642735
   0.90317670  0.75000000  0.25829914
   0.04465995  0.74999999  0.70612724
   0.40317815  0.75000000  0.24169879
Direct configuration=     9
   0.09709722  0.25000002  0.74173969
   0.83387966  0.54380996  0.71698332
   0.83387977  0.95619064  0.71698350
   0.90290106  0.75000000  0.25825990
   0.04492215  0.74999999  0.70553241
   0.40290253  0.75000000  0.24173646
   0.16611573  0.04381136  0.28301822
   0.66611892  0.45619309  0.21698569
   0.33388351  0.54381167  0.78301607
   0.33388364  0.95618890  0.78301667
   0.95507068  0.25000000  0.29446980
   0.45507580  0.25000002  0.20552728
   0.54493079  0.75000001  0.79447279
   0.59710132  0.25000000  0.75825974
   0.66611888  0.04380698  0.21698528
   0.16611574  0.45618861  0.28301857
   0.09443536  0.25000000  0.41904808
   0.40556386  0.75000017  0.91904759
   0.59443303  0.25000000  0.08095317
   0.90556793  0.75000016  0.58095247
  -0.00000012  0.00000046  0.00000074
   0.50000043  0.50000171  0.49999983
   0.50000043 -0.00000169  0.49999981
  -0.00000013  0.49999957  0.00000074
   0.78059692  0.24999999  0.52409545
   0.71940322  0.75000001  0.02409346
   0.28059716  0.25000000  0.97590490
   0.21940355  0.75000002  0.47590439
Direct configuration=    10
   0.09742689  0.25000002  0.74179403
   0.83364766  0.54308913  0.71762900
   0.83364780  0.95691136  0.71762925
   0.90257108  0.75000001  0.25820792
   0.04520987  0.75000000  0.70481350
   0.40257297  0.75000000  0.24178985
   0.16634735  0.04309002  0.28237121
   0.66635071  0.45691448  0.21763235
   0.33365191  0.54309005  0.78236918
   0.33365208  0.95691042  0.78236994
   0.95478134  0.24999999  0.29518913
   0.45478757  0.25000002  0.20480682
   0.54522031  0.75000002  0.79519256
   0.59743163  0.25000000  0.75820742
   0.66635067  0.04308560  0.21763182
   0.16634735  0.45690995  0.28237168
   0.09457879  0.25000000  0.41925779
   0.40542030  0.75000021  0.91925688
   0.59457647  0.25000000  0.08074410
   0.90542470  0.75000019  0.58074295
  -0.00000014  0.00000065  0.00000094
   0.50000042  0.50000209  0.49999965
   0.50000041 -0.00000207  0.49999962
  -0.00000015  0.49999939  0.00000095
   0.78050367  0.24999999  0.52367380
   0.71949641  0.75000002  0.02367067
   0.28050393  0.25000000  0.97632701
   0.21949688  0.75000003  0.47632640
Direct configuration=    11
   0.09781777  0.25000002  0.74186572
   0.83339125  0.54229136  0.71837175
   0.83339142  0.95770902  0.71837208
   0.90217938  0.75000001  0.25813718
   0.04551946  0.75000001  0.70395377
   0.40218223  0.75000002  0.24186100
   0.16660292  0.04229163  0.28162823
   0.66660675  0.45771341  0.21837516
   0.33339651  0.54229199  0.78162603
   0.33339672  0.95770836  0.78162696
   0.95447027  0.24999999  0.29604966
   0.45447748  0.25000001  0.20394537
   0.54553166  0.75000003  0.79605385
   0.59782341  0.25000000  0.75813666
   0.66660670  0.04228667  0.21837452
   0.16660293  0.45770833  0.28162882
   0.09475223  0.25000000  0.41946860
   0.40524677  0.75000025  0.91946702
   0.59474971  0.25000001  0.08053387
   0.90525156  0.75000023  0.58053250
  -0.00000018  0.00000116  0.00000105
   0.50000051  0.50000230  0.49999962
   0.50000050 -0.00000227  0.49999959
  -0.00000019  0.49999888  0.00000106
   0.78039245  0.24999999  0.52317287
   0.71960774  0.75000002  0.02316864
   0.28039259  0.25000000  0.97682842
   0.21960817  0.75000003  0.47682746
Direct configuration=    12
   0.09827800  0.25000003  0.74195848
   0.83311243  0.54142102  0.71921689
   0.83311264  0.95857923  0.71921731
   0.90171857  0.75000002  0.25804484
   0.04584521  0.75000003  0.70293395
   0.40172183  0.75000003  0.24195308
   0.16688093  0.04142084  0.28078295
   0.66688514  0.45858440  0.21922099
   0.33311860  0.54142182  0.78077994
   0.33311884  0.95857840  0.78078105
   0.95414347  0.24999999  0.29707071
   0.45415104  0.25000001  0.20292373
   0.54585869  0.75000003  0.79707560
   0.59828448  0.24999999  0.75804411
   0.66688509  0.04141570  0.21922022
   0.16688095  0.45857912  0.28078367
   0.09495989  0.25000000  0.41967186
   0.40503897  0.75000030  0.91966938
   0.59495752  0.25000001  0.08033137
   0.90504394  0.75000027  0.58032963
  -0.00000031  0.00000139  0.00000126
   0.50000066  0.50000276  0.49999966
   0.50000065 -0.00000272  0.49999962
  -0.00000032  0.49999865  0.00000127
   0.78026066  0.24999998  0.52258257
   0.71973971  0.75000002  0.02257694
   0.28026067  0.25000001  0.97741949
   0.21974016  0.75000004  0.47741798
Direct configuration=    13
   0.09881654  0.25000006  0.74207585
   0.83281373  0.54048512  0.72017029
   0.83281398  0.95951500  0.72017077
   0.90118009  0.75000001  0.25792867
   0.04617958  0.75000004  0.70173338
   0.40118344  0.75000002  0.24206990
   0.16717929  0.04048445  0.27982867
   0.66718346  0.45952068  0.22017597
   0.33282058  0.54048567  0.77982524
   0.33282085  0.95951443  0.77982652
   0.95380846  0.24999999  0.29827229
   0.45381591  0.25000002  0.20172117
   0.54619375  0.75000003  0.79827790
   0.59882343  0.25000000  0.75792785
   0.66718339  0.04047943  0.22017504
   0.16717929  0.45951548  0.27982955
   0.09520656  0.25000000  0.41985772
   0.40479219  0.75000035  0.91985432
   0.59520461  0.25000002  0.08014621
   0.90479700  0.75000032  0.58014396
  -0.00000046  0.000Direct configuration=    12
Direct configuration=    13
   0.09881654  0.25000006  0.74207585
   0.83281373  0.54048512  0.72017029
   0.83281398  0.95951500  0.72017077
   0.90118009  0.75000001  0.25792867
   0.04617958  0.75000004  0.70173338
   0.40118344  0.75000002  0.24206990
Direct configuration=    14
   0.09944187  0.25000009  0.74221964
   0.83249804  0.53949254  0.72123759
   0.83249834  0.96050744  0.72123816
   0.90055495  0.75000001  0.25778589
   0.04651293  0.75000005  0.70033222
   0.40055833  0.75000002  0.24221282
   0.16749469  0.03949201  0.27876056
   0.66749866  0.46051318  0.22124521
   0.33250577  0.53949325  0.77875714
   0.33250607  0.96050671  0.77875863
   0.95347485  0.24999998  0.29967504
   0.45348162  0.25000003  0.20031757
   0.54652732  0.75000005  0.79968111
   0.59944916  0.25000001  0.75778445
   0.66749859  0.03948692  0.22124411
   0.16749470  0.46050790  0.27876157
   0.09549718  0.25000000  0.42001539
   0.40450154  0.75000039  0.92001108
   0.59549580  0.25000002  0.07998920
   0.90450605  0.75000037  0.57998609
  -0.00000068  0.00000239  0.00000209
   0.50000Direct configuration=    14
   0.09944187  0.25000009  0.74221964
   0.83249804  0.53949254  0.72123759
   0.83249834  0.96050744  0.72123816
   0.90055495  0.75000001  0.25778589
   0.04651293  0.75000005  0.70033222
   0.40055833  0.75000002  0.24221282
Direct configuration=    15
   0.10016194  0.25000013  0.74239081
   0.83216952  0.53845674  0.72242182
   0.83216986  0.96154310  0.72242249
   0.89983474  0.75000001  0.25761559
   0.04683333  0.75000006  0.69871221
   0.39983843  0.75000002  0.24238338
   0.16782287  0.03845592  0.27757597
   0.66782664  0.46154942  0.22243088
   0.33217840  0.53845751  0.77757193
   0.33217874  0.96154231  0.77757364
   0.95315430  0.24999997  0.30129722
   0.45316046  0.25000004  0.19869490
   0.54684780  0.75000006  0.80130333
   0.60016973  0.25000001  0.75761372
   0.66782656  0.03845065  0.22242963
   0.16782288  0.46154397  0.27757714
   0.09583626  0.25000000  0.42013399
   0.40416253  0.75000044  0.92012841
   0.59583550  0.25000003  0.07987130
   0.90416655  0.75000041  0.57986764
  -0.00000091  0.00000329  0.00000248
   0.50000Direct configuration=    15
   0.10016194  0.25000013  0.74239081
   0.83216952  0.53845674  0.72242182
   0.83216986  0.96154310  0.72242249
   0.89983474  0.75000001  0.25761559
   0.04683333  0.75000006  0.69871221
   0.39983843  0.75000002  0.24238338
Direct configuration=    16
   0.10098333  0.25000016  0.74258871
   0.83183386  0.53739511  0.72372154
   0.83183425  0.96260460  0.72372228
   0.89901337  0.75000000  0.25741882
   0.04712639  0.75000007  0.69686008
   0.39901727  0.75000003  0.24258063
   0.16815833  0.03739319  0.27627536
   0.66816172  0.46261175  0.22373206
   0.33184372  0.53739507  0.77627086
   0.33184410  0.96260459  0.77627280
   0.95286107  0.24999996  0.30315172
   0.45286661  0.25000005  0.19683982
   0.54714081  0.75000007  0.80315807
   0.60099156  0.25000003  0.75741712
   0.66816164  0.03738831  0.22373066
   0.16815835  0.46260669  0.27627666
   0.09622721  0.24999999  0.42020188
   0.40377172  0.75000048  0.92019507
   0.59622721  0.25000004  0.07980410
   0.90377496  0.75000046  0.57979992
  -0.00000120  0.00000419  0.00000294
   0.50000Direct configuration=    16
   0.10098333  0.25000016  0.74258871
   0.83183386  0.53739511  0.72372154
   0.83183425  0.96260460  0.72372228
   0.89901337  0.75000000  0.25741882
   0.04712639  0.75000007  0.69686008
   0.39901727  0.75000003  0.24258063
   0.16815833  0.03739319  0.27627536
   0.66816172  0.46261175  0.22373206
   0.33184372  0.53739507  0.77627086
   0.33184410  0.96260459  0.77627280
   0.95286107  0.24999996  0.30315172
   0.45286661  0.25000005  0.19683982
   0.54714081  0.75000007  0.80315807
   0.60099156  0.25000003  0.75741712
   0.66816164  0.03738831  0.22373066
   0.16815835  0.46260669  0.27627666
   0.09622721  0.24999999  0.42020188
   0.40377172  0.75000048  0.92019507
   0.59622721  0.25000004  0.07980410
   0.90377496  0.75000046  0.57979992
  -0.00000120  0.00000419  0.00000294
   0.50000160  0.50000305  0.50000007
   0.50000159 -0.00000299  0.50000002
  -0.00000123  0.49999593  0.00000290
   0.77946952  0.24999999  0.51911024
   0.72053113  0.75000003  0.01909696
   0.27946876  0.25000002  0.98089611
   0.22053Direct configuration=    16
Direct configuration=    17
   0.10190895  0.25000020  0.74280932
   0.83149807  0.53632907  0.72513003
   0.83149850  0.96367052  0.72513085
   0.89808785  0.74999999  0.25719905
   0.04737580  0.75000008  0.69477117
   0.39809186  0.75000004  0.24280064
   0.16849389  0.03632652  0.27486615
   0.66849699  0.46367830  0.22514238
   0.33150908  0.53632871  0.77486116
   0.33150949  0.96367080  0.77486331
   0.95261200  0.24999995  0.30524312
   0.45261644  0.25000005  0.19474811
   0.54738971  0.75000008  0.80524953
   0.60191768  0.25000007  0.75719728
   0.66849692  0.03632172  0.22514088
   0.16849391  0.46367335  0.27486760
   0.09667174  0.24999999  0.42020843
   0.40332736  0.75000052  0.92020033
   0.59667267  0.25000006  0.07979818
   0.90332956  0.75000049  0.57979343
  -0.00000155  0.00000519  0.00000350
   0.50000194  0.50000301  0.50000026
   0.50000193 -0.00000294  0.50000020
  -0.00000159  0.49999494  0.00000345
   0.77919314  0.24999999  0.51792279
   0.72080754  0.75000003  0.01790716
   0.27919213  0.25000002  0.98208488
   0.22080Direct configuration=    17
Direct configuration=    18
   0.10293658  0.25000023  0.74304620
   0.83117059  0.53528588  0.72663240
   0.83117106  0.96471357  0.72663334
   0.89706033  0.74999997  0.25696347
   0.04756351  0.75000010  0.69245442
   0.39706437  0.75000007  0.24303673
   0.16882090  0.03528324  0.27336308
   0.66882382  0.46472184  0.22664696
   0.33118292  0.53528562  0.77335738
   0.33118337  0.96471377  0.77335973
   0.95242526  0.24999995  0.30756300
   0.45242777  0.25000006  0.19242851
   0.54757656  0.75000009  0.80756910
   0.60294583  0.25000012  0.75696038
   0.66882376  0.03527813  0.22664537
   0.16882095  0.46471660  0.27336465
   0.09716883  0.24999999  0.42014504
   0.40283047  0.75000056  0.92013555
   0.59717099  0.25000007  0.07986232
   0.90283131  0.75000053  0.57985680
  -0.00000194  0.00000618  0.00000404
   0.50000232  0.50000307  0.50000037
   0.50000231 -0.00000299  0.50000029
  -0.00000197  0.49999400  0.00000395
   0.77888325  0.25000000  0.51660577
   0.72111753  0.75000003  0.01658751
   0.27888193  0.25000002  0.98340334
   0.22111Direct configuration=    18
   0.10293658  0.25000023  0.74304620
   0.83117059  0.53528588  0.72663240
   0.83117106  0.96471357  0.72663334
   0.89706033  0.74999997  0.25696347
   0.04756351  0.75000010  0.69245442
   0.39706437  0.75000007  0.24303673
   0.16882090  0.03528324  0.27336308
   0.66882382  0.46472184  0.22664696
   0.33118292  0.53528562  0.77335738
   0.33118337  0.96471377  0.77335973
   0.95242526  0.24999995  0.30756300
   0.45242777  0.25000006  0.19242851
   0.54757656  0.75000009  0.80756910
   0.60294583  0.25000012  0.75696038
   0.66882376  0.03527813  0.22664537
   0.16882095  0.46471660  0.27336465
   0.09716883  0.24999999  0.42014504
   0.40283047  0.75000056  0.92013555
   0.59717099  0.25000007  0.07986232
   0.90283131  0.75000053  0.57985680
  -0.00000194  0.00000618  0.00000404
   0.50000232  0.50000307  0.50000037
   0.50000231 -0.00000299  0.50000029
  -0.00000197  0.49999400  0.00000395
   0.77888325  0.25000000  0.51660577
   0.72111753  0.75000003  0.01658751
   0.27888193  0.25000002  0.98340334
   0.22111728  0.75000007  0.48339598
Direct configuration=    19
   0.10405743  0.25000028  0.74328841
   0.83086112  0.53429686  0.72820497
   0.83086165  0.96570242  0.72820596
   0.89593972  0.74999998  0.25672216
   0.04767131  0.75000005  0.68993462
   0.39594369  0.75000005  0.24327811
   0.16912987  0.03429468  0.27179016
   0.66913252  0.46571082  0.22822195
   0.33087499  0.53429733  0.77178343
   0.33087546  0.96570197  0.77178596
   0.95231914  0.24999991  0.31008623
   0.45231912  0.25000011  0.18990583
   0.54768283  0.75000014  0.81009159
   0.60406712  0.25000017  0.75671767
   0.66913249  0.03428907  0.22822032
   0.16912992  0.46570515  0.27179187
   0.09771406  0.25000000  0.42000640
   0.40228546  0.75000058  0.91999535
   0.59771764  0.25000010  0.08000177
   0.90228472  0.75000056  0.57999551
  -0.00000238  0.00000721  0.00000460
   0.50000271  0.50000310  0.50000041
   0.50000272 -0.00000303  0.50000035
  -0.00000241  0.49999301  0.00000444
   0.77854164  0.25000000  0.51517149
   0.72145923  0.75000003  0.01515034
   0.27854000  0.25000003  0.98483919
   0.22145876  0.75000007  0.48483052
Direct configuration=    20
   0.10525528  0.25000032  0.74352251
   0.83057988  0.53339633  0.72981468
   0.83058045  0.96660280  0.72981575
   0.89474233  0.75000000  0.25648903
   0.04768228  0.75000002  0.68725512
   0.39474634  0.74999998  0.24351134
   0.16941058  0.03339441  0.27018012
   0.66941278  0.46661173  0.22983365
   0.33059537  0.53339686  0.77017260
   0.33059586  0.96660234  0.77017525
   0.95231009  0.24999989  0.31276918
   0.45230727  0.25000019  0.18722344
   0.54769219  0.75000024  0.81277386
   0.60526494  0.25000017  0.75648327
   0.66941277  0.03338808  0.22983195
   0.16941065  0.46660538  0.27018194
   0.09829906  0.25000001  0.41979157
   0.40170077  0.75000061  0.91977903
   0.59830414  0.25000013  0.08021745
   0.90169818  0.75000059  0.58021047
  -0.00000287  0.00000823  0.00000519
   0.50000316  0.50000312  0.50000040
   0.50000319 -0.00000306  0.50000038
  -0.00000290  0.49999205  0.00000496
   0.77817259  0.25000001  0.51364210
   0.72182850  0.75000003  0.01361789
   0.27817050  0.25000004  0.98637022
   0.22182771  0.75000008  0.48636019
Direct configuration=    21
   0.10650636  0.25000034  0.74373221
   0.83033651  0.53261634  0.73142090
   0.83033712  0.96738265  0.73142205
   0.89349176  0.75000000  0.25627975
   0.04758378  0.74999999  0.68447574
   0.39349598  0.74999989  0.24372025
   0.16965332  0.03261510  0.26857352
   0.66965511  0.46739191  0.23144166
   0.33035366  0.53261698  0.76856541
   0.33035415  0.96738212  0.76856815
   0.95241093  0.24999989  0.31555208
   0.45240519  0.25000029  0.18444161
   0.54759161  0.75000035  0.81555578
   0.60651591  0.25000014  0.75627301
   0.66965511  0.03260781  0.23143991
   0.16965341  0.46738467  0.26857543
Direct configuration=    22
   0.10778206  0.25000035  0.74390127
   0.83013922  0.53198497  0.73297971
   0.83013985  0.96801388  0.73298094
   0.89221671  0.74999996  0.25611115
   0.04736842  0.74999996  0.68166714
   0.39222097  0.74999988  0.24388887
   0.16985012  0.03198400  0.26701417
   0.66985152  0.46802363  0.23300244
   0.33015762  0.53198519  0.76700554
   0.33015810  0.96801386  0.76700836
   0.95262838  0.24999989  0.31836365
   0.45262Direct configuration=    22
   0.10778206  0.25000035  0.74390127
   0.83013922  0.53198497  0.73297971
   0.83013985  0.96801388  0.73298094
   0.89221671  0.74999996  0.25611115
   0.04736842  0.74999996  0.68166714
   0.39222097  0.74999988  0.24388887
   0.16985012  0.03198400  0.26701417
   0.66985152  0.46802363  0.23300244
   0.33015762  0.53198519  0.76700554
   0.33015810  0.96801386  0.76700836
   0.95262838  0.24999989  0.31836365
   0.45262023  0.25000038  0.18163102
   0.54737446  0.75000045  0.81836613
   0.60779152  0.25000014  0.75610365
   0.66985153  0.03197601  0.23300064
   0.16985025  0.46801577  0.26701615
Direct configuration=    23
   0.10905209  0.25000035  0.74401510
   0.82999320  0.53152154  0.73444913
   0.82999384  0.96847719  0.73445046
   0.89094726  0.74999993  0.25599776
   0.04703611  0.74999993  0.67890322
   0.39095156  0.74999986  0.24400211
   0.16999576  0.03152067  0.26554418
   0.66999668  0.46848733  0.23447349
   0.33001281  0.53152124  0.76553498
   0.33001327  0.96847778  0.76553787
   0.95296267  0.24999989  0.32113060
   0.45295Direct configuration=    23
   0.10905209  0.25000035  0.74401510
   0.82999320  0.53152154  0.73444913
Direct configuration=    24
   0.11028811  0.25000035  0.74406138
   0.82990062  0.53123577  0.73579376
   0.82990127  0.96876286  0.73579518
   0.88971185  0.74999990  0.25595178
   0.04659310  0.74999990  0.67625105
   0.38971606  0.74999985  0.24404798
   0.17008804  0.03123490  0.26419918
   0.67008850  0.46877371  0.23581979
   0.32992135  0.53123498  0.76418930
   0.32992179  0.96876402  0.76419224
   0.95340756  0.24999990  0.32378555
   0.45339539  0.25000056  0.17621146
   0.54659572  0.75000062  0.82378514
   0.61029Direct configuration=    24
   0.11028811  0.25000035  0.74406138
   0.82990062  0.53123577  0.73579376
   0.82990127  0.96876286  0.73579518
   0.88971185  0.74999990  0.25595178
   0.04659310  0.74999990  0.67625105
   0.38971606  0.74999985  0.24404798
   0.17008804  0.03123490  0.26419918
   0.67008850  0.46877371  0.23581979
   0.32992135  0.53123498  0.76418930
   0.32992179  0.96876402  0.76419224
   0.95340756  0.24999990  0.32378555
   0.45339Direct configuration=    24
   0.11028811  0.25000035  0.74406138
   0.82990062  0.53123577  0.73579376
   0.82990127  0.96876286  0.73579518
   0.88971185  0.74999990  0.25595178
   0.04659310  0.74999990  0.67625105
   0.38971606  0.74999985  0.24404798
   0.17008804  0.03123490  0.26419918
   0.67008850  0.46877371  0.23581979
   0.32992135  0.53123498  0.76418930
   0.32992179  0.96876402  0.76419224
   0.95340756  0.24999990  0.32378555
   0.45339539  0.25000056  0.17621146
   0.54659572  0.75000062  0.82378514
   0.61029710  0.25000009  0.75594383
   0.67008851  0.03122579  0.23581790
   0.17008824  0.46876489  0.26420128
Direct configuration=    25
   0.11146648  0.25000035  0.74403225
   0.82986046  0.53112690  0.73698778
   0.82986111  0.96887166  0.73698931
   0.88853404  0.74999990  0.25598090
   0.04605116  0.74999986  0.67376519
   0.38853830  0.74999983  0.24401805
   0.17012776  0.03112672  0.26300455
   0.67012786  0.46888262  0.23701560
   0.32988239  0.53112594  0.76299442
   0.32988280  0.96887305  0.76299741
   0.95395133  0.24999990  0.32627408
   0.45393Direct configuration=    25
   0.11146648  0.25000035  0.74403225
   0.82986046  0.53112690  0.73698778
   0.82986111  0.96887166  0.73698931
   0.88853404  0.74999990  0.25598090
   0.04605116  0.74999986  0.67376519
   0.38853830  0.74999983  0.24401805
   0.17012776  0.03112672  0.26300455
   0.67012786  0.46888262  0.23701560
   0.32988239  0.53112594  0.76299442
   0.32988280  0.96887305  0.76299741
   0.95395133  0.24999990  0.32627408
   0.45393749  0.25000064  0.17372407
   0.54605227  0.75000071  0.82627236
   0.61147532  0.25000005  0.75597282
   0.67012787  0.03111680  0.23701366
   0.17012800  0.46887309  0.26300668
Direct configuration=    26
   0.11257025  0.25000032  0.74392423
   0.82986947  0.53118700  0.73801588
   0.82987012  0.96881150  0.73801749
   0.88743094  0.74999990  0.25608890
   0.04542535  0.74999983  0.67148350
   0.38743511  0.74999983  0.24390931
   0.17011843  0.03118766  0.26197543
   0.67011822  0.46882227  0.23804593
   0.32989229  0.53118567  0.76196545
   0.32989266  0.96881334  0.76196846
   0.95457837  0.24999990  0.32855766
   0.45456Direct configuration=    26
   0.11257025  0.25000032  0.74392423
Direct configuration=    27
   0.11358880  0.25000030  0.74373769
   0.82992252  0.53140243  0.73887292
   0.82992317  0.96859604  0.73887460
   0.88641297  0.74999990  0.25627524
   0.04473268  0.74999980  0.66942875
   0.38641692  0.74999984  0.24372213
   0.17006516  0.03140329  0.26111708
   0.67006470  0.46860640  0.23890471
   0.32994590  0.53140017  0.76110727
   0.32994624  0.96859889  0.76111028
   0.95527156  0.24999991  0.33061380
   0.45525691  0.25000080  0.16938607
   0.54473230  0.75000084  0.83060941
   0.61359757  0.24999997  0.75626845
   0.67006Direct configuration=    27
   0.11358880  0.25000030  0.74373769
   0.82992252  0.53140243  0.73887292
   0.82992317  0.96859604  0.73887460
   0.88641297  0.74999990  0.25627524
   0.04473268  0.74999980  0.66942875
   0.38641692  0.74999984  0.24372213
   0.17006516  0.03140329  0.26111708
   0.67006470  0.46860640  0.23890471
   0.32994590  0.53140017  0.76110727
   0.32994624  0.96859889  0.76111028
   0.95527156  0.24999991  0.33061380
   0.45525Direct configuration=    27
   0.11358880  0.25000030  0.74373769
Direct configuration=    28
   0.11451785  0.25000028  0.74347540
   0.83001353  0.53175556  0.73956129
   0.83001416  0.96824289  0.73956304
   0.88548452  0.74999990  0.25653695
   0.04399075  0.74999978  0.66761015
   0.38548818  0.74999985  0.24345947
   0.16997389  0.03175704  0.26042728
   0.66997342  0.46825257  0.23959509
   0.33003723  0.53175265  0.76041786
   0.33003753  0.96824646  0.76042085
   0.95601414  0.24999992  0.33243348
   0.45599975  0.25000087  0.16756717
   0.54398994  0.75000090  0.83242793
   0.61452677  0.24999994  0.75653128
   0.66997342  0.03174671  0.23959304
   0.16997423  0.46824283  0.26042946
   0.10284934  0.25000006  0.41659465
   0.39715483  0.75000048  0.91657690
   0.60286089  0.25000029  0.08342002
   0.89713779  0.75000052  0.58341039
  -0.00000692  0.00001069  0.00000945
   0.50000555  0.50000647  0.49999900
   0.50000581 -0.00000641  0.49999919
  -0.00000697  0.49999004  0.00000876
   0.77514226  0.25000009  0.50202981
   0.72485968  0.74999999  0.00198301
   0.27513Direct configuration=    28
   0.11451785  0.25000028  0.74347540
Direct configuration=    29
   0.11535731  0.25000026  0.74314273
   0.83013588  0.53222811  0.74008926
   0.83013650  0.96777035  0.74009109
   0.88464534  0.74999990  0.25686834
   0.04321613  0.74999975  0.66602679