  28  28   0   0
  0.1072695E+02  0.1041910E-08  0.6069944E-09  0.4749189E-09  0.1000000E-14
   300.000000000000     
  CAR 
 MD-OXC                                  
     15.97026632    -44.19869310  301      4.23983091      1.00000000
    -44.199  0.0000E+00  0.0000E+00
    -43.998  0.0000E+00  0.0000E+00
    -43.798  0.0000E+00  0.0000E+00
    -43.597  0.0000E+00  0.0000E+00
    -43.396  0.0000E+00  0.0000E+00
    -43.196  0.0000E+00  0.0000E+00
    -42.995  0.0000E+00  0.0000E+00
    -42.795  0.0000E+00  0.0000E+00
    -42.594  0.0000E+00  0.0000E+00
    -42.394  0.0000E+00  0.0000E+00
    -42.193  0.0000E+00  0.0000E+00
    -41.992  0.9504E-12  0.1908E-12
    -41.792  0.5104E-04  0.1025E-04
    -41.591  0.1235E+01  0.2481E+00
    -41.391  0.3198E+02  0.6675E+01
    -41.190  0.6591E+01  0.7999E+01
    -40.990  0.2783E-02  0.8000E+01
    -40.789  0.6094E-09  0.8000E+01
    -40.589  0.0000E+00  0.8000E+01
    -40.388  0.0000E+00  0.8000E+01
    -40.187  0.0000E+00  0.8000E+01
    -39.987  0.0000E+00  0.8000E+01
    -39.786  0.0000E+00  0.8000E+01
    -39.586  0.0000E+00  0.8000E+01
    -39.385  0.0000E+00  0.8000E+01
    -39.185  0.0000E+00  0.8000E+01
    -38.984  0.0000E+00  0.8000E+01
    -38.783  0.0000E+00  0.8000E+01
    -38.583  0.0000E+00  0.8000E+01
    -38.382  0.0000E+00  0.8000E+01
    -38.182  0.0000E+00  0.8000E+01
    -37.981  0.0000E+00  0.8000E+01
    -37.781  0.0000E+00  0.8000E+01
    -37.580  0.0000E+00  0.8000E+01
    -37.380  0.0000E+00  0.8000E+01
    -37.179  0.0000E+00  0.8000E+01
    -36.978  0.0000E+00  0.8000E+01
    -36.778  0.0000E+00  0.8000E+01
    -36.577  0.0000E+00  0.8000E+01
    -36.377  0.0000E+00  0.8000E+01
    -36.176  0.0000E+00  0.8000E+01
    -35.976  0.0000E+00  0.8000E+01
    -35.775  0.0000E+00  0.8000E+01
    -35.574  0.0000E+00  0.8000E+01
    -35.374  0.0000E+00  0.8000E+01
    -35.173  0.0000E+00  0.8000E+01
    -34.973  0.0000E+00  0.8000E+01
    -34.772  0.0000E+00  0.8000E+01
    -34.572  0.0000E+00  0.8000E+01
    -34.371  0.0000E+00  0.8000E+01
    -34.171  0.0000E+00  0.8000E+01
    -33.970  0.0000E+00  0.8000E+01
    -33.769  0.0000E+00  0.8000E+01
    -33.569  0.0000E+00  0.8000E+01
    -33.368  0.0000E+00  0.8000E+01
    -33.168  0.0000E+00  0.8000E+01
    -32.967  0.0000E+00  0.8000E+01
    -32.767  0.0000E+00  0.8000E+01
    -32.566  0.0000E+00  0.8000E+01
    -32.365  0.0000E+00  0.8000E+01
    -32.165  0.0000E+00  0.8000E+01
    -31.964  0.0000E+00  0.8000E+01
    -31.764  0.0000E+00  0.8000E+01
    -31.563  0.0000E+00  0.8000E+01
    -31.363  0.0000E+00  0.8000E+01
    -31.162  0.0000E+00  0.8000E+01
    -30.962  0.0000E+00  0.8000E+01
    -30.761  0.0000E+00  0.8000E+01
    -30.560  0.0000E+00  0.8000E+01
    -30.360  0.0000E+00  0.8000E+01
    -30.159  0.0000E+00  0.8000E+01
    -29.959  0.0000E+00  0.8000E+01
    -29.758  0.0000E+00  0.8000E+01
    -29.558  0.0000E+00  0.8000E+01
    -29.357  0.0000E+00  0.8000E+01
    -29.156  0.0000E+00  0.8000E+01
    -28.956  0.0000E+00  0.8000E+01
    -28.755  0.0000E+00  0.8000E+01
    -28.555  0.0000E+00  0.8000E+01
    -28.354  0.0000E+00  0.8000E+01
    -28.154  0.0000E+00  0.8000E+01
    -27.953  0.0000E+00  0.8000E+01
    -27.753  0.0000E+00  0.8000E+01
    -27.552  0.0000E+00  0.8000E+01
    -27.351  0.0000E+00  0.8000E+01
    -27.151  0.0000E+00  0.8000E+01
    -26.950  0.0000E+00  0.8000E+01
    -26.750  0.0000E+00  0.8000E+01
    -26.549  0.0000E+00  0.8000E+01
    -26.349  0.0000E+00  0.8000E+01
    -26.148  0.0000E+00  0.8000E+01
    -25.947  0.0000E+00  0.8000E+01
    -25.747  0.0000E+00  0.8000E+01
    -25.546  0.0000E+00  0.8000E+01
    -25.346  0.0000E+00  0.8000E+01
    -25.145  0.0000E+00  0.8000E+01
    -24.945  0.0000E+00  0.8000E+01
    -24.744  0.0000E+00  0.8000E+01
    -24.543  0.0000E+00  0.8000E+01
    -24.343  0.0000E+00  0.8000E+01
    -24.142  0.0000E+00  0.8000E+01
    -23.942  0.0000E+00  0.8000E+01
    -23.741  0.0000E+00  0.8000E+01
    -23.541  0.0000E+00  0.8000E+01
    -23.340  0.0000E+00  0.8000E+01
    -23.140  0.0000E+00  0.8000E+01
    -22.939  0.0000E+00  0.8000E+01
    -22.738  0.0000E+00  0.8000E+01
    -22.538  0.0000E+00  0.8000E+01
    -22.337  0.0000E+00  0.8000E+01
    -22.137  0.0000E+00  0.8000E+01
    -21.936  0.0000E+00  0.8000E+01
    -21.736  0.0000E+00  0.8000E+01
    -21.535  0.0000E+00  0.8000E+01
    -21.334  0.0000E+00  0.8000E+01
    -21.134  0.0000E+00  0.8000E+01
    -20.933  0.0000E+00  0.8000E+01
    -20.733  0.0000E+00  0.8000E+01
    -20.532  0.0000E+00  0.8000E+01
    -20.332  0.0000E+00  0.8000E+01
    -20.131  0.0000E+00  0.8000E+01
    -19.931  0.9258E-12  0.8000E+01
    -19.730  0.4983E-05  0.8000E+01
    -19.529  0.1886E-01  0.8004E+01
    -19.329  0.5460E+00  0.8114E+01
    -19.128  0.2332E+01  0.8584E+01
    -18.928  0.4540E+01  0.9497E+01
    -18.727  0.6325E+01  0.1077E+02
    -18.527  0.7795E+01  0.1233E+02
    -18.326  0.8306E+01  0.1400E+02
    -18.125  0.6220E+01  0.1525E+02
    -17.925  0.2996E+01  0.1585E+02
    -17.724  0.6897E+00  0.1599E+02
    -17.524  0.3967E-01  0.1600E+02
    -17.323  0.2823E-04  0.1600E+02
    -17.123  0.1791E-01  0.1600E+02
    -16.922  0.5036E+00  0.1610E+02
    -16.722  0.1714E+01  0.1645E+02
    -16.521  0.6049E+01  0.1767E+02
    -16.320  0.1617E+02  0.2092E+02
    -16.120  0.2546E+02  0.2603E+02
    -15.919  0.2921E+02  0.3190E+02
    -15.719  0.2440E+02  0.3681E+02
    -15.518  0.1258E+02  0.3934E+02
    -15.318  0.3200E+01  0.3998E+02
    -15.117  0.1078E+00  0.4000E+02
    -14.916  0.1861E-04  0.4000E+02
    -14.716  0.2987E-11  0.4000E+02
    -14.515  0.0000E+00  0.4000E+02
    -14.315  0.0000E+00  0.4000E+02
    -14.114  0.0000E+00  0.4000E+02
    -13.914  0.0000E+00  0.4000E+02
    -13.713  0.0000E+00  0.4000E+02
    -13.513  0.0000E+00  0.4000E+02
    -13.312  0.0000E+00  0.4000E+02
    -13.111  0.0000E+00  0.4000E+02
    -12.911  0.0000E+00  0.4000E+02
    -12.710  0.0000E+00  0.4000E+02
    -12.510  0.0000E+00  0.4000E+02
    -12.309  0.0000E+00  0.4000E+02
    -12.109  0.0000E+00  0.4000E+02
    -11.908  0.0000E+00  0.4000E+02
    -11.707  0.0000E+00  0.4000E+02
    -11.507  0.0000E+00  0.4000E+02
    -11.306  0.0000E+00  0.4000E+02
    -11.106  0.0000E+00  0.4000E+02
    -10.905  0.0000E+00  0.4000E+02
    -10.705  0.0000E+00  0.4000E+02
    -10.504  0.0000E+00  0.4000E+02
    -10.304  0.0000E+00  0.4000E+02
    -10.103  0.0000E+00  0.4000E+02
     -9.902  0.0000E+00  0.4000E+02
     -9.702  0.0000E+00  0.4000E+02
     -9.501  0.0000E+00  0.4000E+02
     -9.301  0.0000E+00  0.4000E+02
     -9.100  0.0000E+00  0.4000E+02
     -8.900  0.0000E+00  0.4000E+02
     -8.699  0.0000E+00  0.4000E+02
     -8.498  0.0000E+00  0.4000E+02
     -8.298  0.0000E+00  0.4000E+02
     -8.097  0.0000E+00  0.4000E+02
     -7.897  0.0000E+00  0.4000E+02
     -7.696  0.0000E+00  0.4000E+02
     -7.496  0.0000E+00  0.4000E+02
     -7.295  0.0000E+00  0.4000E+02
     -7.095  0.6986E-10  0.4000E+02
     -6.894  0.7501E-04  0.4000E+02
     -6.693  0.6278E-01  0.4001E+02
     -6.493  0.1006E+01  0.4022E+02
     -6.292  0.4301E+01  0.4108E+02
     -6.092  0.7234E+01  0.4253E+02
     -5.891  0.1171E+02  0.4489E+02
     -5.691  0.1106E+02  0.4711E+02
     -5.490  0.4153E+01  0.4794E+02
     -5.289  0.2839E+00  0.4800E+02
     -5.089  0.1232E-01  0.4800E+02
     -4.888  0.4868E+00  0.4810E+02
     -4.688  0.2834E+01  0.4867E+02
     -4.487  0.6387E+01  0.4995E+02
     -4.287  0.8733E+01  0.5171E+02
     -4.086  0.1432E+02  0.5459E+02
     -3.885  0.1249E+02  0.5710E+02
     -3.685  0.1123E+02  0.5936E+02
     -3.484  0.1144E+02  0.6166E+02
     -3.284  0.1712E+02  0.6510E+02
     -3.083  0.2021E+02  0.6916E+02
     -2.883  0.1013E+02  0.7119E+02
     -2.682  0.3483E+01  0.7189E+02
     -2.482  0.8485E+00  0.7206E+02
     -2.281  0.2312E+01  0.7253E+02
     -2.080  0.4555E+01  0.7344E+02
     -1.880  0.7106E+01  0.7487E+02
     -1.679  0.9687E+01  0.7682E+02
     -1.479  0.1846E+02  0.8053E+02
     -1.278  0.2449E+02  0.8546E+02
     -1.078  0.2322E+02  0.9012E+02
     -0.877  0.1798E+02  0.9373E+02
     -0.676  0.2169E+02  0.9810E+02
     -0.476  0.2887E+02  0.1039E+03
     -0.275  0.2922E+02  0.1098E+03
     -0.075  0.2353E+02  0.1145E+03
      0.126  0.2199E+02  0.1189E+03
      0.326  0.2005E+02  0.1229E+03
      0.527  0.2038E+02  0.1270E+03
      0.727  0.1320E+02  0.1297E+03
      0.928  0.1100E+02  0.1319E+03
      1.129  0.1072E+02  0.1341E+03
      1.329  0.7611E+01  0.1356E+03
      1.530  0.1922E+01  0.1360E+03
      1.730  0.1593E+00  0.1360E+03
      1.931  0.8900E-03  0.1360E+03
      2.131  0.1269E-07  0.1360E+03
      2.332  0.1130E-15  0.1360E+03
      2.533  0.1896E-10  0.1360E+03
      2.733  0.2863E-04  0.1360E+03
      2.934  0.4272E-01  0.1360E+03
      3.134  0.8201E+00  0.1362E+03
      3.335  0.3332E+01  0.1368E+03
      3.535  0.9365E+01  0.1387E+03
      3.736  0.2085E+02  0.1429E+03
      3.936  0.3183E+02  0.1493E+03
      4.137  0.3458E+02  0.1563E+03
      4.338  0.2338E+02  0.1610E+03
      4.538  0.1246E+02  0.1635E+03
      4.739  0.1366E+02  0.1662E+03
      4.939  0.1656E+02  0.1695E+03
      5.140  0.1056E+02  0.1717E+03
      5.340  0.6986E+01  0.1731E+03
      5.541  0.5581E+01  0.1742E+03
      5.742  0.5655E+01  0.1753E+03
      5.942  0.2738E+01  0.1759E+03
      6.143  0.1145E+01  0.1761E+03
      6.343  0.1796E+01  0.1765E+03
      6.544  0.2500E+01  0.1770E+03
      6.744  0.3077E+01  0.1776E+03
      6.945  0.1756E+01  0.1779E+03
      7.145  0.3115E+00  0.1780E+03
      7.346  0.9653E-01  0.1780E+03
      7.547  0.1899E+00  0.1781E+03
      7.747  0.5911E+00  0.1782E+03
      7.948  0.1722E+01  0.1785E+03
      8.148  0.2766E+01  0.1791E+03
      8.349  0.3531E+01  0.1798E+03
      8.549  0.3505E+01  0.1805E+03
      8.750  0.3691E+01  0.1812E+03
      8.951  0.3782E+01  0.1820E+03
      9.151  0.2960E+01  0.1826E+03
      9.352  0.4072E+01  0.1834E+03
      9.552  0.6541E+01  0.1847E+03
      9.753  0.8038E+01  0.1863E+03
      9.953  0.1014E+02  0.1884E+03
     10.154  0.1146E+02  0.1907E+03
     10.354  0.1039E+02  0.1928E+03
     10.555  0.9496E+01  0.1947E+03
     10.756  0.1062E+02  0.1968E+03
     10.956  0.1340E+02  0.1995E+03
     11.157  0.1328E+02  0.2022E+03
     11.357  0.1159E+02  0.2045E+03
     11.558  0.9247E+01  0.2064E+03
     11.758  0.8233E+01  0.2080E+03
     11.959  0.9722E+01  0.2100E+03
     12.160  0.8693E+01  0.2117E+03
     12.360  0.8066E+01  0.2133E+03
     12.561  0.8452E+01  0.2150E+03
     12.761  0.9049E+01  0.2169E+03
     12.962  0.1076E+02  0.2190E+03
     13.162  0.1230E+02  0.2215E+03
     13.363  0.1210E+02  0.2239E+03
     13.564  0.3994E+00  0.2240E+03
     13.764  0.1771E-04  0.2240E+03
     13.965  0.3626E-12  0.2240E+03
     14.165  0.0000E+00  0.2240E+03
     14.366  0.0000E+00  0.2240E+03
     14.566  0.0000E+00  0.2240E+03
     14.767  0.0000E+00  0.2240E+03
     14.967  0.0000E+00  0.2240E+03
     15.168  0.0000E+00  0.2240E+03
     15.369  0.0000E+00  0.2240E+03
     15.569  0.0000E+00  0.2240E+03
     15.770  0.0000E+00  0.2240E+03
     15.970  0.0000E+00  0.2240E+03
     15.88179916    -44.18956521  301      4.26525249      1.00000000
    -44.190  0.0000E+00  0.0000E+00
    -43.989  0.0000E+00  0.0000E+00
    -43.789  0.0000E+00  0.0000E+00
    -43.589  0.0000E+00  0.0000E+00
    -43.389  0.0000E+00  0.0000E+00
    -43.188  0.0000E+00  0.0000E+00
    -42.988  0.0000E+00  0.0000E+00
    -42.788  0.0000E+00  0.0000E+00
    -42.588  0.0000E+00  0.0000E+00
    -42.387  0.0000E+00  0.0000E+00
    -42.187  0.0000E+00  0.0000E+00
    -41.987  0.2299E-14  0.4603E-15
    -41.787  0.1115E-06  0.2232E-07
    -41.586  0.2524E-02  0.5054E-03
    -41.386  0.6411E-01  0.1334E-01
    -41.186  0.1327E-01  0.1600E-01
    -40.986  0.5840E-05  0.1600E-01
    -40.786  0.1384E-11  0.1600E-01
    -40.585  0.0000E+00  0.1600E-01
    -40.385  0.0000E+00  0.1600E-01
    -40.185  0.0000E+00  0.1600E-01
    -39.985  0.0000E+00  0.1600E-01
    -39.784  0.0000E+00  0.1600E-01
    -39.584  0.0000E+00  0.1600E-01
    -39.384  0.0000E+00  0.1600E-01
    -39.184  0.0000E+00  0.1600E-01
    -38.983  0.0000E+00  0.1600E-01
    -38.783  0.0000E+00  0.1600E-01
    -38.583  0.0000E+00  0.1600E-01
    -38.383  0.0000E+00  0.1600E-01
    -38.182  0.0000E+00  0.1600E-01
    -37.982  0.0000E+00  0.1600E-01
    -37.782  0.0000E+00  0.1600E-01
    -37.582  0.0000E+00  0.1600E-01
    -37.381  0.0000E+00  0.1600E-01
    -37.181  0.0000E+00  0.1600E-01
    -36.981  0.0000E+00  0.1600E-01
    -36.781  0.0000E+00  0.1600E-01
    -36.581  0.0000E+00  0.1600E-01
    -36.380  0.0000E+00  0.1600E-01
    -36.180  0.0000E+00  0.1600E-01
    -35.980  0.0000E+00  0.1600E-01
    -35.780  0.0000E+00  0.1600E-01
    -35.579  0.0000E+00  0.1600E-01
    -35.379  0.0000E+00  0.1600E-01
    -35.179  0.0000E+00  0.1600E-01
    -34.979  0.0000E+00  0.1600E-01
    -34.778  0.0000E+00  0.1600E-01
    -34.578  0.0000E+00  0.1600E-01
    -34.378  0.0000E+00  0.1600E-01
    -34.178  0.0000E+00  0.1600E-01
    -33.977  0.0000E+00  0.1600E-01
    -33.777  0.0000E+00  0.1600E-01
    -33.577  0.0000E+00  0.1600E-01
    -33.377  0.0000E+00  0.1600E-01
    -33.176  0.0000E+00  0.1600E-01
    -32.976  0.0000E+00  0.1600E-01
    -32.776  0.0000E+00  0.1600E-01
    -32.576  0.0000E+00  0.1600E-01
    -32.376  0.0000E+00  0.1600E-01
    -32.175  0.0000E+00  0.1600E-01
    -31.975  0.0000E+00  0.1600E-01
    -31.775  0.0000E+00  0.1600E-01
    -31.575  0.0000E+00  0.1600E-01
    -31.374  0.0000E+00  0.1600E-01
    -31.174  0.0000E+00  0.1600E-01
    -30.974  0.0000E+00  0.1600E-01
    -30.774  0.0000E+00  0.1600E-01
    -30.573  0.0000E+00  0.1600E-01
    -30.373  0.0000E+00  0.1600E-01
    -30.173  0.0000E+00  0.1600E-01
    -29.973  0.0000E+00  0.1600E-01
    -29.772  0.0000E+00  0.1600E-01
    -29.572  0.0000E+00  0.1600E-01
    -29.372  0.0000E+00  0.1600E-01
    -29.172  0.0000E+00  0.1600E-01
    -28.971  0.0000E+00  0.1600E-01
    -28.771  0.0000E+00  0.1600E-01
    -28.571  0.0000E+00  0.1600E-01
    -28.371  0.0000E+00  0.1600E-01
    -28.171  0.0000E+00  0.1600E-01
    -27.970  0.0000E+00  0.1600E-01
    -27.770  0.0000E+00  0.1600E-01
    -27.570  0.0000E+00  0.1600E-01
    -27.370  0.0000E+00  0.1600E-01
    -27.169  0.0000E+00  0.1600E-01
    -26.969  0.0000E+00  0.1600E-01
    -26.769  0.0000E+00  0.1600E-01
    -26.569  0.0000E+00  0.1600E-01
    -26.368  0.0000E+00  0.1600E-01
    -26.168  0.0000E+00  0.1600E-01
    -25.968  0.0000E+00  0.1600E-01
    -25.768  0.0000E+00  0.1600E-01
    -25.567  0.0000E+00  0.1600E-01
    -25.367  0.0000E+00  0.1600E-01
    -25.167  0.0000E+00  0.1600E-01
    -24.967  0.0000E+00  0.1600E-01
    -24.766  0.0000E+00  0.1600E-01
    -24.566  0.0000E+00  0.1600E-01
    -24.366  0.0000E+00  0.1600E-01
    -24.166  0.0000E+00  0.1600E-01
    -23.966  0.0000E+00  0.1600E-01
    -23.765  0.0000E+00  0.1600E-01
    -23.565  0.0000E+00  0.1600E-01
    -23.365  0.0000E+00  0.1600E-01
    -23.165  0.0000E+00  0.1600E-01
    -22.964  0.0000E+00  0.1600E-01
    -22.764  0.0000E+00  0.1600E-01
    -22.564  0.0000E+00  0.1600E-01
    -22.364  0.0000E+00  0.1600E-01
    -22.163  0.0000E+00  0.1600E-01
    -21.963  0.0000E+00  0.1600E-01
    -21.763  0.0000E+00  0.1600E-01
    -21.563  0.0000E+00  0.1600E-01
    -21.362  0.0000E+00  0.1600E-01
    -21.162  0.0000E+00  0.1600E-01
    -20.962  0.0000E+00  0.1600E-01
    -20.762  0.0000E+00  0.1600E-01
    -20.561  0.0000E+00  0.1600E-01
    -20.361  0.0000E+00  0.1600E-01
    -20.161  0.0000E+00  0.1600E-01
    -19.961  0.0000E+00  0.1600E-01
    -19.761  0.0000E+00  0.1600E-01
    -19.560  0.0000E+00  0.1600E-01
    -19.360  0.6312E-11  0.1600E-01
    -19.160  0.8059E-05  0.1600E-01
    -18.960  0.6051E-02  0.1721E-01
    -18.759  0.2757E-01  0.2273E-01
    -18.559  0.3714E-01  0.3017E-01
    -18.359  0.9114E-02  0.3199E-01
    -18.159  0.2904E-04  0.3200E-01
    -17.958  0.6269E-10  0.3200E-01
    -17.758  0.0000E+00  0.3200E-01
    -17.558  0.0000E+00  0.3200E-01
    -17.358  0.0000E+00  0.3200E-01
    -17.157  0.0000E+00  0.3200E-01
    -16.957  0.1320E-12  0.3200E-01
    -16.757  0.9205E-06  0.3200E-01
    -16.557  0.4913E-02  0.3298E-01
    -16.356  0.9174E-01  0.5135E-01
    -16.156  0.6022E-01  0.6341E-01
    -15.956  0.2932E-02  0.6400E-01
    -15.756  0.9675E-04  0.6402E-01
    -15.556  0.1307E-01  0.6664E-01
    -15.355  0.4857E-01  0.7636E-01
    -15.155  0.1811E-01  0.7999E-01
    -14.955  0.6053E-04  0.8000E-01
    -14.755  0.2049E-09  0.8000E-01
    -14.554  0.0000E+00  0.8000E-01
    -14.354  0.0000E+00  0.8000E-01
    -14.154  0.0000E+00  0.8000E-01
    -13.954  0.0000E+00  0.8000E-01
    -13.753  0.0000E+00  0.8000E-01
    -13.553  0.0000E+00  0.8000E-01
    -13.353  0.0000E+00  0.8000E-01
    -13.153  0.0000E+00  0.8000E-01
    -12.952  0.0000E+00  0.8000E-01
    -12.752  0.0000E+00  0.8000E-01
    -12.552  0.0000E+00  0.8000E-01
    -12.352  0.0000E+00  0.8000E-01
    -12.152  0.0000E+00  0.8000E-01
    -11.951  0.0000E+00  0.8000E-01
    -11.751  0.0000E+00  0.8000E-01
    -11.551  0.0000E+00  0.8000E-01
    -11.351  0.0000E+00  0.8000E-01
    -11.150  0.0000E+00  0.8000E-01
    -10.950  0.0000E+00  0.8000E-01
    -10.750  0.0000E+00  0.8000E-01
    -10.550  0.0000E+00  0.8000E-01
    -10.349  0.0000E+00  0.8000E-01
    -10.149  0.0000E+00  0.8000E-01
     -9.949  0.0000E+00  0.8000E-01
     -9.749  0.0000E+00  0.8000E-01
     -9.548  0.0000E+00  0.8000E-01
     -9.348  0.0000E+00  0.8000E-01
     -9.148  0.0000E+00  0.8000E-01
     -8.948  0.0000E+00  0.8000E-01
     -8.747  0.0000E+00  0.8000E-01
     -8.547  0.0000E+00  0.8000E-01
     -8.347  0.0000E+00  0.8000E-01
     -8.147  0.0000E+00  0.8000E-01
     -7.947  0.0000E+00  0.8000E-01
     -7.746  0.0000E+00  0.8000E-01
     -7.546  0.0000E+00  0.8000E-01
     -7.346  0.0000E+00  0.8000E-01
     -7.146  0.0000E+00  0.8000E-01
     -6.945  0.0000E+00  0.8000E-01
     -6.745  0.8871E-17  0.8000E-01
     -6.545  0.1827E-08  0.8000E-01
     -6.345  0.1710E-03  0.8003E-01
     -6.144  0.1332E-01  0.8270E-01
     -5.944  0.2444E-01  0.8760E-01
     -5.744  0.4091E-01  0.9579E-01
     -5.544  0.1065E-02  0.9600E-01
     -5.343  0.3837E-07  0.9600E-01
     -5.143  0.9224E-11  0.9600E-01
     -4.943  0.9996E-05  0.9600E-01
     -4.743  0.6448E-02  0.9729E-01
     -4.542  0.1342E-01  0.9998E-01
     -4.342  0.1964E-01  0.1039E+00
     -4.142  0.3712E-01  0.1113E+00
     -3.942  0.3478E-02  0.1120E+00
     -3.742  0.1378E-01  0.1148E+00
     -3.541  0.1622E-01  0.1180E+00
     -3.341  0.3517E-01  0.1251E+00
     -3.141  0.3652E-01  0.1324E+00
     -2.941  0.5321E-01  0.1431E+00
     -2.740  0.4699E-02  0.1440E+00
     -2.540  0.1602E-05  0.1440E+00
     -2.340  0.3141E-07  0.1440E+00
     -2.140  0.6726E-03  0.1441E+00
     -1.939  0.1615E-01  0.1474E+00
     -1.739  0.5455E-02  0.1485E+00
     -1.539  0.4849E-01  0.1582E+00
     -1.339  0.4808E-01  0.1678E+00
     -1.138  0.4302E-01  0.1764E+00
     -0.938  0.2290E-01  0.1810E+00
     -0.738  0.8555E-01  0.1981E+00
     -0.538  0.5445E-01  0.2090E+00
     -0.337  0.4666E-01  0.2184E+00
     -0.137  0.4435E-01  0.2273E+00
      0.063  0.4710E-01  0.2367E+00
      0.263  0.1625E-01  0.2399E+00
      0.463  0.1348E-01  0.2426E+00
      0.664  0.4335E-01  0.2513E+00
      0.864  0.2036E-01  0.2554E+00
      1.064  0.9648E-02  0.2573E+00
      1.264  0.2635E-01  0.2626E+00
      1.465  0.1809E-01  0.2662E+00
      1.665  0.2609E-01  0.2714E+00
      1.865  0.2751E-02  0.2720E+00
      2.065  0.8425E-06  0.2720E+00
      2.266  0.1345E-12  0.2720E+00
      2.466  0.0000E+00  0.2720E+00
      2.666  0.0000E+00  0.2720E+00
      2.866  0.0000E+00  0.2720E+00
      3.067  0.0000E+00  0.2720E+00
      3.267  0.4589E-10  0.2720E+00
      3.467  0.2533E-04  0.2720E+00
      3.667  0.1359E-01  0.2747E+00
      3.868  0.1093E+00  0.2966E+00
      4.068  0.1040E+00  0.3174E+00
      4.268  0.1288E-01  0.3200E+00
      4.468  0.1200E-01  0.3224E+00
      4.668  0.4672E-01  0.3318E+00
      4.869  0.1742E-01  0.3352E+00
      5.069  0.3209E-01  0.3417E+00
      5.269  0.4941E-01  0.3516E+00
      5.469  0.2155E-02  0.3520E+00
      5.670  0.1730E-06  0.3520E+00
      5.870  0.6778E-14  0.3520E+00
      6.070  0.1273E-12  0.3520E+00
      6.270  0.8149E-06  0.3520E+00
      6.471  0.2675E-02  0.3525E+00
      6.671  0.1645E-01  0.3558E+00
      6.871  0.8462E-03  0.3560E+00
      7.071  0.5215E-07  0.3560E+00
      7.272  0.1193E-13  0.3560E+00
      7.472  0.1763E-06  0.3560E+00
      7.672  0.1438E-02  0.3563E+00
      7.872  0.1684E-01  0.3597E+00
      8.073  0.1702E-02  0.3600E+00
      8.273  0.2669E-06  0.3600E+00
      8.473  0.2326E-03  0.3600E+00
      8.673  0.1402E-01  0.3629E+00
      8.873  0.5720E-02  0.3640E+00
      9.074  0.7093E-05  0.3640E+00
      9.274  0.1623E-02  0.3643E+00
      9.474  0.1685E-01  0.3677E+00
      9.674  0.8049E-02  0.3693E+00
      9.875  0.2102E-01  0.3735E+00
     10.075  0.1718E-01  0.3770E+00
     10.275  0.1987E-01  0.3809E+00
     10.475  0.3022E-01  0.3870E+00
     10.676  0.5045E-02  0.3880E+00
     10.876  0.1156E-01  0.3903E+00
     11.076  0.2808E-01  0.3959E+00
     11.276  0.1355E-01  0.3987E+00
     11.477  0.1436E-01  0.4015E+00
     11.677  0.5206E-01  0.4120E+00
     11.877  0.2002E-01  0.4160E+00
     12.077  0.1154E-01  0.4183E+00
     12.278  0.8589E-02  0.4200E+00
     12.478  0.4253E-04  0.4200E+00
     12.678  0.7504E-02  0.4215E+00
     12.878  0.3128E-01  0.4278E+00
     13.078  0.5434E-01  0.4386E+00
     13.279  0.4573E-01  0.4478E+00
     13.479  0.9669E-03  0.4480E+00
     13.679  0.3788E-07  0.4480E+00
     13.879  0.8361E-15  0.4480E+00
     14.080  0.0000E+00  0.4480E+00
     14.280  0.0000E+00  0.4480E+00
     14.480  0.0000E+00  0.4480E+00
     14.680  0.0000E+00  0.4480E+00
     14.881  0.0000E+00  0.4480E+00
     15.081  0.0000E+00  0.4480E+00
     15.281  0.0000E+00  0.4480E+00
     15.481  0.0000E+00  0.4480E+00
     15.682  0.0000E+00  0.4480E+00
     15.882  0.0000E+00  0.4480E+00
