   28   28  500    1
  0.1072695E+02  0.1041910E-08  0.6069943E-09  0.4749188E-09  0.1000000E-14
   300.000000000000     
  CAR 
 MD-OXC                                  
    160      1    112
 
  0.0000000E+00  0.0000000E+00  0.0000000E+00  0.1000000E+01
      1        -41.459049   1.000000
      2        -41.458340   1.000000
      3        -41.451470   1.000000
      4        -41.450762   1.000000
      5        -18.922918   1.000000
      6        -18.738360   1.000000
      7        -18.723639   1.000000
      8        -18.569414   1.000000
      9        -16.478587   1.000000
     10        -16.435721   1.000000
     11        -16.423212   1.000000
     12        -16.411761   1.000000
     13        -16.406114   1.000000
     14        -16.349379   1.000000
     15        -16.272808   1.000000
     16        -16.249568   1.000000
     17        -15.572749   1.000000
     18        -15.437105   1.000000
     19        -15.399969   1.000000
     20        -15.351545   1.000000
     21         -6.176020   1.000000
     22         -5.945862   1.000000
     23         -5.891566   1.000000
     24         -5.874106   1.000000
     25         -4.710280   1.000000
     26         -4.342961   1.000000
     27         -4.331575   1.000000
     28         -4.212939   1.000000
     29         -3.778309   1.000000
     30         -3.531922   1.000000
     31         -3.433871   1.000000
     32         -3.314761   1.000000
     33         -3.188751   1.000000
     34         -3.074070   1.000000
     35         -3.068751   1.000000
     36         -3.007856   1.000000
     37         -2.010255   1.000000
     38         -1.627527   1.000000
     39         -1.623342   1.000000
     40         -1.565710   1.000000
     41         -1.436425   1.000000
     42         -1.416921   1.000000
     43         -1.267271   1.000000
     44         -1.172795   1.000000
     45         -1.129584   1.000000
     46         -0.847945   1.000000
     47         -0.838102   1.000000
     48         -0.822573   1.000000
     49         -0.788220   1.000000
     50         -0.754163   1.000000
     51         -0.710511   1.000000
     52         -0.640381   1.000000
     53         -0.491695   1.000000
     54         -0.434849   1.000000
     55         -0.368239   1.000000
     56         -0.190398   1.000000
     57         -0.147718   1.000000
     58         -0.114023   1.000000
     59         -0.050162   1.000000
     60          0.114456   1.000000
     61          0.466679   1.000000
     62          0.538053   1.000000
     63          0.595164   1.000000
     64          0.791343   1.000000
     65          1.096543   1.000000
     66          1.235922   1.000000
     67          1.461977   1.000000
     68          1.587132   1.000000
     69          3.681292   1.000000
     70          3.748446   1.000000
     71          3.775515   1.000000
     72          3.786415   1.000000
     73          3.819249   1.000000
     74          3.839724   1.000000
     75          3.875360   1.000000
     76          3.887329   1.000000
     77          3.969943   0.999985
     78          3.977121   0.999977
     79          4.008324   0.999860
     80          4.020485   0.999731
     81          4.504673   0.000355
     82          4.541371   0.000047
     83          4.542381   0.000044
     84          4.808889   0.000000
     85          5.039497   0.000000
     86          5.063393   0.000000
     87          5.151784   0.000000
     88          5.157487   0.000000
     89          6.548959   0.000000
     90          7.775350   0.000000
     91          8.633419   0.000000
     92          9.372701   0.000000
     93          9.706128   0.000000
     94          9.894670   0.000000
     95         10.123575   0.000000
     96         10.326539   0.000000
     97         10.424149   0.000000
     98         10.914708   0.000000
     99         10.915375   0.000000
    100         11.246560   0.000000
    101         11.529974   0.000000
    102         11.553425   0.000000
    103         11.623356   0.000000
    104         11.719559   0.000000
    105         12.065038   0.000000
    106         12.700899   0.000000
    107         12.883317   0.000000
    108         12.885947   0.000000
    109         13.025546   0.000000
    110         13.096915   0.000000
    111         13.106341   0.000000
    112         13.151283   0.000000
