       N       E                     dE             d eps       ncg     rms          rms(c)
DAV:   1     0.994585652705E+03    0.99459E+03   -0.74689E+04   224   0.124E+03
DAV:   2    -0.158531160855E+03   -0.11531E+04   -0.11356E+04   280   0.312E+02
DAV:   3    -0.217473666937E+03   -0.58943E+02   -0.58753E+02   336   0.853E+01
DAV:   4    -0.218195676453E+03   -0.72201E+00   -0.72189E+00   280   0.975E+00
DAV:   5    -0.218217224192E+03   -0.21548E-01   -0.21541E-01   336   0.172E+00    0.374E+01
DAV:   6    -0.213772901882E+03    0.44443E+01   -0.63809E+02   336   0.666E+01    0.539E+01
DAV:   7    -0.192051665286E+03    0.21721E+02   -0.40200E+02   280   0.143E+02    0.141E+01
DAV:   8    -0.189944541026E+03    0.21071E+01   -0.12799E+01   280   0.105E+01    0.866E+00
DAV:   9    -0.188977277146E+03    0.96726E+00   -0.80666E+00   392   0.113E+01    0.359E+00
DAV:  10    -0.189258860649E+03   -0.28158E+00   -0.31877E+00   392   0.479E+00    0.109E+01
DAV:  11    -0.189101112843E+03    0.15775E+00   -0.49793E+00   392   0.364E+00    0.264E+00
DAV:  12    -0.189122105293E+03   -0.20992E-01   -0.93086E-01   392   0.272E+00    0.510E+00
DAV:  13    -0.189064594552E+03    0.57511E-01   -0.15299E+00   392   0.255E+00    0.206E+00
DAV:  14    -0.189040967969E+03    0.23627E-01   -0.23899E-01   336   0.161E+00    0.115E+00
DAV:  15    -0.189030061026E+03    0.10907E-01   -0.11574E-01   392   0.116E+00    0.636E-01
DAV:  16    -0.189028556950E+03    0.15041E-02   -0.20174E-02   392   0.562E-01    0.340E-01
DAV:  17    -0.189029405031E+03   -0.84808E-03   -0.35736E-03   392   0.196E-01    0.216E-01
DAV:  18    -0.189029965888E+03   -0.56086E-03   -0.20146E-03   336   0.154E-01    0.130E-01
DAV:  19    -0.189030142035E+03   -0.17615E-03   -0.68331E-04   168   0.787E-02    0.605E-02
DAV:  20    -0.189030175084E+03   -0.33049E-04   -0.25438E-04   280   0.486E-02
      1 T=     0. E= -.18902987E+03 F= -.18903018E+03 E0= -.18902731E+03  EK= 0.30504E-03 SP= 0.00E+00 SK= 0.00E+00
       N       E                     dE             d eps       ncg     rms          rms(c)
DAV:   1    -0.189035033730E+03   -0.48917E-02   -0.73271E-03   224   0.272E-01    0.223E-02
DAV:   2    -0.189035063521E+03   -0.29791E-04   -0.37929E-04   336   0.752E-02
      2 T=     1. E= -.18903017E+03 F= -.18903506E+03 E0= -.18903223E+03  EK= 0.49037E-02 SP= -.13E-01 SK= 0.13E-01
       N       E                     dE             d eps       ncg     rms          rms(c)
DAV:   1    -0.189049365703E+03   -0.14332E-01   -0.29254E-02   224   0.601E-01    0.118E-01
DAV:   2    -0.189054682183E+03   -0.53165E-02   -0.59233E-02   392   0.718E-01    0.108E+00
DAV:   3    -0.189049457322E+03    0.52249E-02   -0.57105E-02   336   0.592E-01    0.119E-01
DAV:   4    -0.189049494696E+03   -0.37374E-04   -0.32473E-03   224   0.111E-01    0.726E-02
DAV:   5    -0.189049417713E+03    0.76983E-04   -0.93758E-04   168   0.660E-02
      3 T=     6. E= -.18903008E+03 F= -.18904942E+03 E0= -.18904661E+03  EK= 0.19764E-01 SP= -.51E-01 SK= 0.51E-01
       N       E                     dE             d eps       ncg     rms          rms(c)
DAV:   1    -0.189073539874E+03   -0.24045E-01   -0.19416E-02   336   0.591E-01    0.545E-01
DAV:   2    -0.189210616963E+03   -0.13708E+00   -0.14382E+00   336   0.317E+00    0.708E+00
DAV:   3    -0.189082827621E+03    0.12779E+00   -0.21034E+00   336   0.254E+00    0.686E-01
DAV:   4    -0.189074499799E+03    0.83278E-02   -0.87765E-02   224   0.700E-01    0.317E-01
DAV:   5    -0.189073082165E+03    0.14176E-02   -0.24084E-02   336   0.400E-01    0.247E-01
DAV:   6    -0.189072671011E+03    0.41115E-03   -0.81351E-03   280   0.223E-01    0.114E-01
DAV:   7    -0.189072575273E+03    0.95738E-04   -0.26216E-03   168   0.102E-01    0.758E-02
DAV:   8    -0.189072524284E+03    0.50989E-04   -0.80210E-04   168   0.524E-02
      4 T=    13. E= -.18902995E+03 F= -.18907252E+03 E0= -.18906973E+03  EK= 0.44892E-01 SP= -.12E+00 SK= 0.11E+00
       N       E                     dE             d eps       ncg     rms          rms(c)
DAV:   1    -0.189103079017E+03   -0.30504E-01   -0.69047E-03   392   0.467E-01    0.241E-01
DAV:   2    -0.189117367618E+03   -0.14289E-01   -0.16071E-01   392   0.113E+00    0.181E+00
DAV:   3    -0.189103577517E+03    0.13790E-01   -0.17518E-01   336   0.103E+00    0.287E-01
DAV:   4    -0.189103292735E+03    0.28478E-03   -0.96682E-03   224   0.184E-01    0.130E-01
DAV:   5    -0.189103170457E+03    0.12228E-03   -0.35519E-03   168   0.137E-01    0.135E-01
DAV:   6    -0.189103089007E+03    0.81450E-04   -0.20950E-03   168   0.120E-01    0.789E-02
DAV:   7    -0.189103106757E+03   -0.17750E-04   -0.70583E-04   168   0.659E-02
      5 T=    23. E= -.18902981E+03 F= -.18910311E+03 E0= -.18910034E+03  EK= 0.80803E-01 SP= -.20E+00 SK= 0.20E+00
       N       E                     dE             d eps       ncg     rms          rms(c)
DAV:   1    -0.189139501073E+03   -0.36412E-01   -0.68627E-03   336   0.589E-01    0.102E-01
DAV:   2    -0.189140574304E+03   -0.10732E-02   -0.13248E-02   336   0.397E-01    0.473E-01
DAV:   3    -0.189139554006E+03    0.10203E-02   -0.14635E-02   224   0.329E-01    0.147E-01
DAV:   4    -0.189139526533E+03    0.27473E-04   -0.26586E-03   280   0.180E-01    0.823E-02
DAV:   5    -0.189139609177E+03   -0.82644E-04   -0.21164E-03   224   0.132E-01    0.165E-01
DAV:   6    -0.189139491914E+03    0.11726E-03   -0.17976E-03   168   0.124E-01    0.418E-02
DAV:   7    -0.189139491110E+03    0.80399E-06   -0.20072E-04   112   0.360E-02
      6 T=    37. E= -.18902953E+03 F= -.18913949E+03 E0= -.18913679E+03  EK= 0.12852E+00 SP= -.32E+00 SK= 0.30E+00
       N       E                     dE             d eps       ncg     rms          rms(c)
DAV:   1    -0.189179678097E+03   -0.40186E-01   -0.97697E-03   392   0.658E-01    0.875E-02
DAV:   2    -0.189181195520E+03   -0.15174E-02   -0.17815E-02   392   0.445E-01    0.556E-01
DAV:   3    -0.189179821096E+03    0.13744E-02   -0.20094E-02   280   0.368E-01    0.158E-01
DAV:   4    -0.189179716795E+03    0.10430E-03   -0.23820E-03   280   0.150E-01    0.562E-02
DAV:   5    -0.189179718383E+03   -0.15887E-05   -0.96759E-04   168   0.808E-02
      7 T=    54. E= -.18902922E+03 F= -.18917972E+03 E0= -.18917707E+03  EK= 0.18930E+00 SP= -.45E+00 SK= 0.41E+00
       N       E                     dE             d eps       ncg     rms          rms(c)
DAV:   1    -0.189221246437E+03   -0.41530E-01   -0.14549E-02   336   0.785E-01    0.810E-02
DAV:   2    -0.189223198127E+03   -0.19517E-02   -0.21459E-02   336   0.419E-01    0.642E-01
DAV:   3    -0.189221348216E+03    0.18499E-02   -0.21022E-02   224   0.383E-01    0.807E-02
DAV:   4    -0.189221346885E+03    0.13311E-05   -0.12377E-03   168   0.675E-02    0.448E-02
DAV:   5    -0.189221324807E+03    0.22078E-04   -0.33810E-04   112   0.410E-02
      8 T=    76. E= -.18902879E+03 F= -.18922132E+03 E0= -.18921872E+03  EK= 0.26486E+00 SP= -.61E+00 SK= 0.54E+00
       N       E                     dE             d eps       ncg     rms          rms(c)
DAV:   1    -0.189261948300E+03   -0.40601E-01   -0.19692E-02   224   0.898E-01    0.143E-01
DAV:   2    -0.189269156680E+03   -0.72084E-02   -0.81731E-02   392   0.827E-01    0.127E+00
DAV:   3    -0.189262029156E+03    0.71275E-02   -0.82067E-02   280   0.712E-01    0.164E-01
DAV:   4    -0.189261959381E+03    0.69774E-04   -0.41958E-03   224   0.135E-01    0.618E-02
DAV:   5    -0.189261911840E+03    0.47541E-04   -0.12148E-03   280   0.861E-02    0.610E-02
DAV:   6    -0.189261881475E+03    0.30366E-04   -0.47155E-04   112   0.520E-02
      9 T=   102. E= -.18902819E+03 F= -.18926188E+03 E0= -.18925932E+03  EK= 0.35768E+00 SP= -.78E+00 SK= 0.66E+00
       N       E                     dE             d eps       ncg     rms          rms(c)
DAV:   1    -0.189298925265E+03   -0.37013E-01   -0.26281E-02   280   0.102E+00    0.179E-01
DAV:   2    -0.189310976702E+03   -0.12051E-01   -0.13758E-01   392   0.110E+00    0.161E+00
DAV:   3    -0.189298934730E+03    0.12042E-01   -0.13411E-01   336   0.936E-01    0.199E-01
DAV:   4    -0.189298870975E+03    0.63754E-04   -0.68486E-03   224   0.169E-01    0.795E-02
DAV:   5    -0.189298774409E+03    0.96566E-04   -0.16413E-03   280   0.875E-02    0.530E-02
DAV:   6    -0.189298744459E+03    0.29950E-04   -0.43779E-04   112   0.398E-02
     10 T=   135. E= -.18902747E+03 F= -.18929874E+03 E0= -.18929626E+03  EK= 0.47075E+00 SP= -.98E+00 SK= 0.78E+00
       N       E                     dE             d eps       ncg     rms          rms(c)
DAV:   1    -0.189329494245E+03   -0.30720E-01   -0.32728E-02   280   0.114E+00    0.184E-01
DAV:   2    -0.189342344273E+03   -0.12850E-01   -0.14657E-01   336   0.111E+00    0.171E+00
DAV:   3    -0.189329570402E+03    0.12774E-01   -0.14663E-01   280   0.923E-01    0.197E-01
DAV:   4    -0.189329496161E+03    0.74240E-04   -0.83433E-03   224   0.208E-01    0.124E-01
DAV:   5    -0.189329297295E+03    0.19887E-03   -0.22160E-03   168   0.108E-01    0.635E-02
DAV:   6    -0.189329326144E+03   -0.28849E-04   -0.10914E-03   168   0.789E-02    0.810E-02
DAV:   7    -0.189329286790E+03    0.39354E-04   -0.39205E-04   112   0.521E-02
     11 T=   174. E= -.18902668E+03 F= -.18932929E+03 E0= -.18932688E+03  EK= 0.60764E+00 SP= -.12E+01 SK= 0.88E+00
       N       E                     dE             d eps       ncg     rms          rms(c)
DAV:   1    -0.189351198043E+03   -0.21872E-01   -0.41108E-02   280   0.126E+00    0.246E-01
DAV:   2    -0.189371896324E+03   -0.20698E-01   -0.23245E-01   336   0.138E+00    0.220E+00
DAV:   3    -0.189351650771E+03    0.20246E-01   -0.24563E-01   336   0.120E+00    0.275E-01
DAV:   4    -0.189351218510E+03    0.43226E-03   -0.10974E-02   224   0.213E-01    0.804E-02
DAV:   5    -0.189351108227E+03    0.11028E-03   -0.26350E-03   280   0.128E-01    0.731E-02
DAV:   6    -0.189351031762E+03    0.76466E-04   -0.68537E-04   112   0.721E-02
     12 T=   221. E= -.18902580E+03 F= -.18935103E+03 E0= -.18934871E+03  EK= 0.77251E+00 SP= -.14E+01 SK= 0.95E+00
       N       E                     dE             d eps       ncg     rms          rms(c)
DAV:   1    -0.189362252141E+03   -0.11144E-01   -0.55820E-02   280   0.143E+00    0.320E-01
DAV:   2    -0.189400333783E+03   -0.38082E-01   -0.43156E-01   392   0.189E+00    0.294E+00
DAV:   3    -0.189362604070E+03    0.37730E-01   -0.44605E-01   336   0.161E+00    0.343E-01
DAV:   4    -0.189362160074E+03    0.44400E-03   -0.20695E-02   224   0.294E-01    0.114E-01
DAV:   5    -0.189361860874E+03    0.29920E-03   -0.43557E-03   168   0.140E-01    0.749E-02
DAV:   6    -0.189361764826E+03    0.96048E-04   -0.11147E-03   168   0.666E-02    0.254E-02
DAV:   7    -0.189361767905E+03   -0.30788E-05   -0.37132E-04   112   0.387E-02
     13 T=   278. E= -.18902492E+03 F= -.18936177E+03 E0= -.18935951E+03  EK= 0.96937E+00 SP= -.16E+01 SK= 0.99E+00
       N       E                     dE             d eps       ncg     rms          rms(c)
DAV:   1    -0.189360183377E+03    0.15814E-02   -0.70545E-02   280   0.157E+00    0.339E-01
DAV:   2    -0.189407572718E+03   -0.47389E-01   -0.53131E-01   280   0.206E+00    0.347E+00
DAV:   3    -0.189361215355E+03    0.46357E-01   -0.59574E-01   280   0.164E+00    0.385E-01
DAV:   4    -0.189360160627E+03    0.10547E-02   -0.27478E-02   224   0.356E-01    0.158E-01
DAV:   5    -0.189359681019E+03    0.47961E-03   -0.54646E-03   336   0.166E-01    0.833E-02
DAV:   6    -0.189359642134E+03    0.38886E-04   -0.15708E-03   168   0.873E-02    0.737E-02
DAV:   7    -0.189359604183E+03    0.37950E-04   -0.66040E-04   112   0.578E-02
     14 T=   344. E= -.18902416E+03 F= -.18935960E+03 E0= -.18935743E+03  EK= 0.12009E+01 SP= -.18E+01 SK= 0.98E+00
       N       E                     dE             d eps       ncg     rms          rms(c)
DAV:   1    -0.189343537227E+03    0.16105E-01   -0.79786E-02   280   0.165E+00    0.163E-01
DAV:   2    -0.189353218112E+03   -0.96809E-02   -0.11064E-01   336   0.969E-01    0.147E+00
DAV:   3    -0.189343646383E+03    0.95717E-02   -0.10737E-01   280   0.832E-01    0.160E-01
DAV:   4    -0.189343567076E+03    0.79307E-04   -0.54685E-03   224   0.144E-01    0.890E-02
DAV:   5    -0.189343471466E+03    0.95610E-04   -0.14479E-03   168   0.862E-02    0.742E-02
DAV:   6    -0.189343448201E+03    0.23265E-04   -0.49066E-04   112   0.508E-02
     15 T=   420. E= -.18902392E+03 F= -.18934345E+03 E0= -.18934138E+03  EK= 0.14670E+01 SP= -.21E+01 SK= 0.92E+00
       N       E                     dE             d eps       ncg     rms          rms(c)
DAV:   1    -0.189312791740E+03    0.30680E-01   -0.95789E-02   280   0.176E+00    0.101E-01
DAV:   2    -0.189314555411E+03   -0.17637E-02   -0.22449E-02   336   0.448E-01    0.635E-01
DAV:   3    -0.189312678415E+03    0.18770E-02   -0.20772E-02   280   0.395E-01    0.855E-02
DAV:   4    -0.189312712053E+03   -0.33638E-04   -0.13877E-03   168   0.683E-02    0.701E-02
DAV:   5    -0.189312675599E+03    0.36454E-04   -0.23827E-04   112   0.323E-02
     16 T=   505. E= -.18902440E+03 F= -.18931268E+03 E0= -.18931071E+03  EK= 0.17615E+01 SP= -.23E+01 SK= 0.81E+00
       N       E                     dE             d eps       ncg     rms          rms(c)
DAV:   1    -0.189268427410E+03    0.44285E-01   -0.11901E-01   280   0.196E+00    0.347E-01
DAV:   2    -0.189314394940E+03   -0.45968E-01   -0.52264E-01   392   0.205E+00    0.329E+00
DAV:   3    -0.189269170939E+03    0.45224E-01   -0.55988E-01   336   0.173E+00    0.379E-01
DAV:   4    -0.189268276165E+03    0.89477E-03   -0.23292E-02   224   0.330E-01    0.113E-01
DAV:   5    -0.189268000659E+03    0.27551E-03   -0.53013E-03   280   0.155E-01    0.160E-01
DAV:   6    -0.189267831272E+03    0.16939E-03   -0.22625E-03   168   0.114E-01    0.406E-02
DAV:   7    -0.189267816187E+03    0.15086E-04   -0.35661E-04   112   0.343E-02
     17 T=   593. E= -.18902603E+03 F= -.18926782E+03 E0= -.18926596E+03  EK= 0.20701E+01 SP= -.25E+01 SK= 0.65E+00
       N       E                     dE             d eps       ncg     rms          rms(c)
DAV:   1    -0.189210724464E+03    0.57107E-01   -0.13881E-01   336   0.207E+00    0.341E-01
DAV:   2    -0.189256429524E+03   -0.45705E-01   -0.52059E-01   392   0.205E+00    0.324E+00
DAV:   3    -0.189211257655E+03    0.45172E-01   -0.53660E-01   336   0.174E+00    0.338E-01
DAV:   4    -0.189210716686E+03    0.54097E-03   -0.24072E-02   224   0.330E-01    0.167E-01
DAV:   5    -0.189210173727E+03    0.54296E-03   -0.40118E-03   168   0.129E-01    0.452E-02
DAV:   6    -0.189210204643E+03   -0.30917E-04   -0.11419E-03   168   0.768E-02    0.850E-02
DAV:   7    -0.189210158853E+03    0.45790E-04   -0.72972E-04   112   0.671E-02
     18 T=   679. E= -.18902866E+03 F= -.18921016E+03 E0= -.18920843E+03  EK= 0.23685E+01 SP= -.26E+01 SK= 0.46E+00
       N       E                     dE             d eps       ncg     rms          rms(c)
DAV:   1    -0.189142563670E+03    0.67641E-01   -0.15116E-01   392   0.213E+00    0.195E-01
DAV:   2    -0.189153768018E+03   -0.11204E-01   -0.12961E-01   392   0.105E+00    0.154E+00
DAV:   3    -0.189142793008E+03    0.10975E-01   -0.13078E-01   392   0.955E-01    0.212E-01
DAV:   4    -0.189142528578E+03    0.26443E-03   -0.56341E-03   224   0.163E-01    0.622E-02
DAV:   5    -0.189142555209E+03   -0.26632E-04   -0.22443E-03   168   0.130E-01    0.139E-01
DAV:   6    -0.189142442482E+03    0.11273E-03   -0.13307E-03   168   0.986E-02    0.404E-02
DAV:   7    -0.189142453769E+03   -0.11287E-04   -0.23053E-04   112   0.487E-02
     19 T=   752. E= -.18903189E+03 F= -.18914245E+03 E0= -.18914087E+03  EK= 0.26234E+01 SP= -.28E+01 SK= 0.27E+00
       N       E                     dE             d eps       ncg     rms          rms(c)
DAV:   1    -0.189068508613E+03    0.73934E-01   -0.16429E-01   392   0.218E+00    0.720E-02
DAV:   2    -0.189069017557E+03   -0.50894E-03   -0.75833E-03   336   0.346E-01    0.311E-01
DAV:   3    -0.189068589259E+03    0.42830E-03   -0.80811E-03   224   0.255E-01    0.139E-01
DAV:   4    -0.189068485871E+03    0.10339E-03   -0.12930E-03   168   0.126E-01    0.325E-02
DAV:   5    -0.189068503954E+03   -0.18082E-04   -0.29399E-04   112   0.488E-02
     20 T=   802. E= -.18903466E+03 F= -.18906850E+03 E0= -.18906707E+03  EK= 0.27995E+01 SP= -.29E+01 SK= 0.11E+00
       N       E                     dE             d eps       ncg     rms          rms(c)
DAV:   1    -0.188993157466E+03    0.75328E-01   -0.17383E-01   392   0.222E+00    0.126E-01
DAV:   2    -0.188996459277E+03   -0.33018E-02   -0.38358E-02   336   0.599E-01    0.823E-01
DAV:   3    -0.188993340595E+03    0.31187E-02   -0.39117E-02   280   0.532E-01    0.151E-01
DAV:   4    -0.188993249111E+03    0.91484E-04   -0.20457E-03   168   0.132E-01    0.592E-02
DAV:   5    -0.188993281712E+03   -0.32600E-04   -0.80021E-04   112   0.744E-02
     21 T=   822. E= -.18903595E+03 F= -.18899328E+03 E0= -.18899201E+03  EK= 0.28690E+01 SP= -.29E+01 SK= 0.18E-01
       N       E                     dE             d eps       ncg     rms          rms(c)
DAV:   1    -0.188922375456E+03    0.70874E-01   -0.17664E-01   392   0.224E+00    0.147E-01
DAV:   2    -0.188930365883E+03   -0.79904E-02   -0.90868E-02   336   0.906E-01    0.130E+00
DAV:   3    -0.188922563004E+03    0.78029E-02   -0.85646E-02   336   0.783E-01    0.137E-01
DAV:   4    -0.188922483419E+03    0.79584E-04   -0.35410E-03   224   0.131E-01    0.606E-02
DAV:   5    -0.188922426807E+03    0.56613E-04   -0.65651E-04   112   0.586E-02
     22 T=   808. E= -.18903531E+03 F= -.18892243E+03 E0= -.18892132E+03  EK= 0.28215E+01 SP= -.29E+01 SK= 0.40E-02
       N       E                     dE             d eps       ncg     rms          rms(c)
DAV:   1    -0.188861227628E+03    0.61256E-01   -0.17088E-01   392   0.218E+00    0.161E-01
DAV:   2    -0.188870607432E+03   -0.93798E-02   -0.10641E-01   336   0.973E-01    0.140E+00
DAV:   3    -0.188861437385E+03    0.91700E-02   -0.10051E-01   336   0.849E-01    0.141E-01
DAV:   4    -0.188861365791E+03    0.71595E-04   -0.40146E-03   224   0.132E-01    0.693E-02
DAV:   5    -0.188861304819E+03    0.60971E-04   -0.73984E-04   112   0.640E-02
     23 T=   765. E= -.18903308E+03 F= -.18886130E+03 E0= -.18886038E+03  EK= 0.26684E+01 SP= -.29E+01 SK= 0.63E-01
       N       E                     dE             d eps       ncg     rms          rms(c)
DAV:   1    -0.188814467590E+03    0.46898E-01   -0.16384E-01   392   0.213E+00    0.293E-01
DAV:   2    -0.188846047523E+03   -0.31580E-01   -0.36043E-01   392   0.176E+00    0.264E+00
DAV:   3    -0.188815010278E+03    0.31037E-01   -0.36025E-01   392   0.152E+00    0.278E-01
DAV:   4    -0.188814429249E+03    0.58103E-03   -0.11705E-02   224   0.246E-01    0.642E-02
DAV:   5    -0.188814382747E+03    0.46503E-04   -0.27042E-03   280   0.137E-01    0.128E-01
DAV:   6    -0.188814265029E+03    0.11772E-03   -0.11795E-03   280   0.883E-02    0.413E-02
DAV:   7    -0.188814286603E+03   -0.21574E-04   -0.34021E-04   280   0.684E-02
     24 T=   699. E= -.18903022E+03 F= -.18881429E+03 E0= -.18881353E+03  EK= 0.24381E+01 SP= -.28E+01 SK= 0.17E+00
       N       E                     dE             d eps       ncg     rms          rms(c)
DAV:   1    -0.188783945417E+03    0.30320E-01   -0.14785E-01   392   0.201E+00    0.166E-01
DAV:   2    -0.188792525800E+03   -0.85804E-02   -0.98648E-02   280   0.963E-01    0.133E+00
DAV:   3    -0.188784210638E+03    0.83152E-02   -0.90258E-02   392   0.820E-01    0.139E-01
DAV:   4    -0.188784141195E+03    0.69443E-04   -0.34729E-03   224   0.125E-01    0.616E-02
DAV:   5    -0.188784122741E+03    0.18454E-04   -0.10063E-03   280   0.757E-02    0.849E-02
DAV:   6    -0.188784084582E+03    0.38159E-04   -0.53295E-04   280   0.646E-02
     25 T=   621. E= -.18902772E+03 F= -.18878408E+03 E0= -.18878348E+03  EK= 0.21669E+01 SP= -.27E+01 SK= 0.31E+00
       N       E                     dE             d eps       ncg     rms          rms(c)
DAV:   1    -0.188771489171E+03    0.12634E-01   -0.14058E-01   224   0.189E+00    0.104E-01
DAV:   2    -0.188771822691E+03   -0.33352E-03   -0.63913E-03   336   0.243E-01    0.247E-01
DAV:   3    -0.188771764024E+03    0.58667E-04   -0.97646E-03   280   0.284E-01    0.226E-01
DAV:   4    -0.188771536228E+03    0.22780E-03   -0.25190E-03   280   0.142E-01    0.282E-02
DAV:   5    -0.188771552458E+03   -0.16230E-04   -0.38525E-04   168   0.684E-02
     26 T=   541. E= -.18902611E+03 F= -.18877155E+03 E0= -.18877108E+03  EK= 0.18881E+01 SP= -.26E+01 SK= 0.44E+00
       N       E                     dE             d eps       ncg     rms          rms(c)
DAV:   1    -0.188775759474E+03   -0.42232E-02   -0.11364E-01   392   0.180E+00    0.915E-02
DAV:   2    -0.188777594796E+03   -0.18353E-02   -0.23348E-02   224   0.519E-01    0.593E-01
DAV:   3    -0.188775879480E+03    0.17153E-02   -0.22574E-02   336   0.435E-01    0.128E-01
DAV:   4    -0.188775795943E+03    0.83537E-04   -0.17473E-03   280   0.146E-01    0.432E-02
DAV:   5    -0.188775769434E+03    0.26508E-04   -0.19468E-04   280   0.318E-02
     27 T=   466. E= -.18902541E+03 F= -.18877577E+03 E0= -.18877540E+03  EK= 0.16264E+01 SP= -.24E+01 SK= 0.54E+00
       N       E                     dE             d eps       ncg     rms          rms(c)
DAV:   1    -0.188794606999E+03   -0.18811E-01   -0.10903E-01   392   0.172E+00    0.113E-01
DAV:   2    -0.188798163435E+03   -0.35564E-02   -0.43718E-02   280   0.673E-01    0.856E-01
DAV:   3    -0.188794587505E+03    0.35759E-02   -0.41770E-02   336   0.573E-01    0.127E-01
DAV:   4    -0.188794508542E+03    0.78963E-04   -0.21245E-03   280   0.145E-01    0.536E-02
DAV:   5    -0.188794476277E+03    0.32265E-04   -0.35959E-04   280   0.453E-02
     28 T=   400. E= -.18902548E+03 F= -.18879448E+03 E0= -.18879420E+03  EK= 0.13954E+01 SP= -.22E+01 SK= 0.62E+00
       N       E                     dE             d eps       ncg     rms          rms(c)
DAV:   1    -0.188824567297E+03   -0.30059E-01   -0.99395E-02   336   0.164E+00    0.140E-01
DAV:   2    -0.188830860667E+03   -0.62934E-02   -0.74693E-02   280   0.837E-01    0.115E+00
DAV:   3    -0.188824496054E+03    0.63646E-02   -0.70248E-02   392   0.742E-01    0.129E-01
DAV:   4    -0.188824425849E+03    0.70204E-04   -0.21128E-03   336   0.108E-01    0.466E-02
DAV:   5    -0.188824411498E+03    0.14352E-04   -0.35983E-04   280   0.402E-02
     29 T=   344. E= -.18902600E+03 F= -.18882441E+03 E0= -.18882420E+03  EK= 0.11999E+01 SP= -.21E+01 SK= 0.66E+00
       N       E                     dE             d eps       ncg     rms          rms(c)
DAV:   1    -0.188861897187E+03   -0.37471E-01   -0.70518E-02   448   0.155E+00    0.820E-02
DAV:   2    -0.188863689494E+03   -0.17923E-02   -0.22644E-02   280   0.465E-01    0.614E-01
DAV:   3    -0.188861811205E+03    0.18783E-02   -0.20382E-02   336   0.409E-01    0.650E-02
DAV:   4    -0.188861828016E+03   -0.16812E-04   -0.99310E-04   280   0.896E-02
     30 T=   298. E= -.18902679E+03 F= -.18886183E+03 E0= -.18886166E+03  EK= 0.10384E+01 SP= -.19E+01 SK= 0.68E+00
       N       E                     dE             d eps       ncg     rms          rms(c)
DAV:   1    -0.188902923712E+03   -0.41113E-01   -0.59431E-02   336   0.149E+00    0.120E-01
DAV:   2    -0.188907079312E+03   -0.41556E-02   -0.50917E-02   392   0.697E-01    0.923E-01
DAV:   3    -0.188902806472E+03    0.42728E-02   -0.48237E-02   392   0.633E-01    0.105E-01
DAV:   4    -0.188902759400E+03    0.47072E-04   -0.16075E-03   168   0.872E-02    0.382E-02
DAV:   5    -0.188902742744E+03    0.16657E-04   -0.43141E-04   280   0.531E-02
     31 T=   260. E= -.18902755E+03 F= -.18890274E+03 E0= -.18890261E+03  EK= 0.90650E+00 SP= -.17E+01 SK= 0.66E+00
       N       E                     dE             d eps       ncg     rms          rms(c)
DAV:   1    -0.188943654741E+03   -0.40895E-01   -0.49672E-02   224   0.143E+00    0.820E-02
DAV:   2    -0.188945158289E+03   -0.15035E-02   -0.19640E-02   280   0.444E-01    0.556E-01
DAV:   3    -0.188943580193E+03    0.15781E-02   -0.18249E-02   336   0.396E-01    0.775E-02
DAV:   4    -0.188943571344E+03    0.88495E-05   -0.99026E-04   280   0.976E-02
     32 T=   229. E= -.18902825E+03 F= -.18894357E+03 E0= -.18894346E+03  EK= 0.79848E+00 SP= -.15E+01 SK= 0.63E+00
       N       E                     dE             d eps       ncg     rms          rms(c)
DAV:   1    -0.188981355069E+03   -0.37775E-01   -0.42664E-02   280   0.137E+00    0.934E-02
DAV:   2    -0.188983944835E+03   -0.25898E-02   -0.32553E-02   392   0.550E-01    0.740E-01
DAV:   3    -0.188981193455E+03    0.27514E-02   -0.28972E-02   336   0.486E-01    0.655E-02
DAV:   4    -0.188981224671E+03   -0.31216E-04   -0.11372E-03   280   0.749E-02    0.653E-02
DAV:   5    -0.188981182548E+03    0.42123E-04   -0.25085E-04   280   0.427E-02
     33 T=   203. E= -.18902880E+03 F= -.18898118E+03 E0= -.18898109E+03  EK= 0.70883E+00 SP= -.13E+01 SK= 0.58E+00
       N       E                     dE             d eps       ncg     rms          rms(c)
DAV:   1    -0.189013485292E+03   -0.32261E-01   -0.38246E-02   224   0.133E+00    0.166E-01
DAV:   2    -0.189022993627E+03   -0.95083E-02   -0.11252E-01   336   0.102E+00    0.140E+00
DAV:   3    -0.189013350063E+03    0.96436E-02   -0.10462E-01   336   0.888E-01    0.133E-01
DAV:   4    -0.189013293488E+03    0.56575E-04   -0.29670E-03   224   0.126E-01    0.536E-02
DAV:   5    -0.189013244375E+03    0.49113E-04   -0.42426E-04   280   0.459E-02
     34 T=   181. E= -.18902924E+03 F= -.18901324E+03 E0= -.18901317E+03  EK= 0.63289E+00 SP= -.12E+01 SK= 0.52E+00
       N       E                     dE             d eps       ncg     rms          rms(c)
DAV:   1    -0.189038220496E+03   -0.24927E-01   -0.31163E-02   280   0.127E+00    0.129E-01
DAV:   2    -0.189043261578E+03   -0.50411E-02   -0.60630E-02   392   0.750E-01    0.102E+00
DAV:   3    -0.189038098607E+03    0.51630E-02   -0.57026E-02   392   0.668E-01    0.111E-01
DAV:   4    -0.189038062089E+03    0.36518E-04   -0.15067E-03   280   0.906E-02    0.411E-02
DAV:   5    -0.189038046422E+03    0.15668E-04   -0.26012E-04   280   0.317E-02
     35 T=   162. E= -.18902957E+03 F= -.18903805E+03 E0= -.18903798E+03  EK= 0.56694E+00 SP= -.10E+01 SK= 0.45E+00
       N       E                     dE             d eps       ncg     rms          rms(c)
DAV:   1    -0.189054834315E+03   -0.16772E-01   -0.25419E-02   280   0.122E+00    0.105E-01
DAV:   2    -0.189057309253E+03   -0.24749E-02   -0.30350E-02   392   0.560E-01    0.692E-01
DAV:   3    -0.189054828281E+03    0.24810E-02   -0.28613E-02   336   0.499E-01    0.978E-02
DAV:   4    -0.189054798453E+03    0.29828E-04   -0.13629E-03   168   0.116E-01    0.472E-02
DAV:   5    -0.189054791878E+03    0.65748E-05   -0.41433E-04   168   0.589E-02
     36 T=   146. E= -.18902984E+03 F= -.18905479E+03 E0= -.18905473E+03  EK= 0.50839E+00 SP= -.86E+00 SK= 0.38E+00
       N       E                     dE             d eps       ncg     rms          rms(c)
DAV:   1    -0.189063525779E+03   -0.87273E-02   -0.22012E-02   280   0.117E+00    0.130E-01
DAV:   2    -0.189067687753E+03   -0.41620E-02   -0.50862E-02   392   0.697E-01    0.917E-01
DAV:   3    -0.189063448324E+03    0.42394E-02   -0.49544E-02   280   0.639E-01    0.117E-01
DAV:   4    -0.189063426280E+03    0.22044E-04   -0.22736E-03   280   0.135E-01    0.867E-02
DAV:   5    -0.189063398730E+03    0.27550E-04   -0.14246E-03   224   0.113E-01    0.877E-02
DAV:   6    -0.189063359691E+03    0.39038E-04   -0.49300E-04   112   0.704E-02
     37 T=   131. E= -.18903004E+03 F= -.18906336E+03 E0= -.18906331E+03  EK= 0.45558E+00 SP= -.73E+00 SK= 0.31E+00
       N       E                     dE             d eps       ncg     rms          rms(c)
DAV:   1    -0.189064397143E+03   -0.99841E-03   -0.18310E-02   280   0.109E+00    0.741E-02
DAV:   2    -0.189065451141E+03   -0.10540E-02   -0.13841E-02   336   0.360E-01    0.470E-01
DAV:   3    -0.189064317248E+03    0.11339E-02   -0.12957E-02   224   0.334E-01    0.579E-02
DAV:   4    -0.189064343061E+03   -0.25813E-04   -0.77754E-04   168   0.696E-02
     38 T=   117. E= -.18903022E+03 F= -.18906434E+03 E0= -.18906429E+03  EK= 0.40760E+00 SP= -.61E+00 SK= 0.24E+00
       N       E                     dE             d eps       ncg     rms          rms(c)
DAV:   1    -0.189058820449E+03    0.54968E-02   -0.16845E-02   280   0.106E+00    0.103E-01
DAV:   2    -0.189061060659E+03   -0.22402E-02   -0.27420E-02   392   0.519E-01    0.654E-01
DAV:   3    -0.189058803416E+03    0.22572E-02   -0.25786E-02   336   0.476E-01    0.873E-02
DAV:   4    -0.189058812646E+03   -0.92296E-05   -0.11943E-03   168   0.105E-01    0.534E-02
DAV:   5    -0.189058787739E+03    0.24907E-04   -0.20843E-04   112   0.496E-02
     39 T=   104. E= -.18903031E+03 F= -.18905879E+03 E0= -.18905874E+03  EK= 0.36414E+00 SP= -.51E+00 SK= 0.17E+00
       N       E                     dE             d eps       ncg     rms          rms(c)
DAV:   1    -0.189048527950E+03    0.10285E-01   -0.15524E-02   280   0.101E+00    0.183E-01
DAV:   2    -0.189058800994E+03   -0.10273E-01   -0.12145E-01   392   0.107E+00    0.144E+00
DAV:   3    -0.189048466288E+03    0.10335E-01   -0.11652E-01   280   0.936E-01    0.147E-01
DAV:   4    -0.189048399928E+03    0.66359E-04   -0.35403E-03   224   0.147E-01    0.652E-02
DAV:   5    -0.189048365562E+03    0.34366E-04   -0.11234E-03   168   0.962E-02    0.874E-02
DAV:   6    -0.189048327453E+03    0.38109E-04   -0.55508E-04   112   0.720E-02
     40 T=    93. E= -.18903041E+03 F= -.18904833E+03 E0= -.18904828E+03  EK= 0.32535E+00 SP= -.42E+00 SK= 0.11E+00
       N       E                     dE             d eps       ncg     rms          rms(c)
DAV:   1    -0.189034892690E+03    0.13473E-01   -0.13558E-02   280   0.953E-01    0.171E-01
DAV:   2    -0.189043671657E+03   -0.87790E-02   -0.10352E-01   336   0.999E-01    0.132E+00
DAV:   3    -0.189034820179E+03    0.88515E-02   -0.96476E-02   336   0.850E-01    0.128E-01
DAV:   4    -0.189034808694E+03    0.11485E-04   -0.33637E-03   224   0.158E-01    0.709E-02
DAV:   5    -0.189034744063E+03    0.64630E-04   -0.58892E-04   112   0.643E-02
     41 T=    84. E= -.18903047E+03 F= -.18903474E+03 E0= -.18903470E+03  EK= 0.29168E+00 SP= -.35E+00 SK= 0.67E-01
       N       E                     dE             d eps       ncg     rms          rms(c)
DAV:   1    -0.189020175617E+03    0.14633E-01   -0.11459E-02   280   0.927E-01    0.184E-01
DAV:   2    -0.189029798094E+03   -0.96225E-02   -0.11270E-01   336   0.104E+00    0.138E+00
DAV:   3    -0.189020209958E+03    0.95881E-02   -0.10805E-01   336   0.905E-01    0.152E-01
DAV:   4    -0.189020120887E+03    0.89071E-04   -0.31857E-03   224   0.131E-01    0.613E-02
DAV:   5    -0.189020156503E+03   -0.35616E-04   -0.16510E-03   168   0.121E-01    0.122E-01
DAV:   6    -0.189020067690E+03    0.88813E-04   -0.81622E-04   112   0.861E-02
     42 T=    76. E= -.18903050E+03 F= -.18902007E+03 E0= -.18902002E+03  EK= 0.26389E+00 SP= -.31E+00 SK= 0.31E-01
       N       E                     dE             d eps       ncg     rms          rms(c)
DAV:   1    -0.189006575598E+03    0.13581E-01   -0.11173E-02   280   0.885E-01    0.131E-01
DAV:   2    -0.189010967521E+03   -0.43919E-02   -0.53531E-02   392   0.797E-01    0.901E-01
DAV:   3    -0.189006665104E+03    0.43024E-02   -0.51122E-02   336   0.659E-01    0.160E-01
DAV:   4    -0.189006488346E+03    0.17676E-03   -0.26582E-03   168   0.182E-01    0.436E-02
DAV:   5    -0.189006478528E+03    0.98185E-05   -0.58026E-04   112   0.682E-02
     43 T=    70. E= -.18903052E+03 F= -.18900648E+03 E0= -.18900644E+03  EK= 0.24301E+00 SP= -.28E+00 SK= 0.80E-02
       N       E                     dE             d eps       ncg     rms          rms(c)
DAV:   1    -0.188995979726E+03    0.10509E-01   -0.11350E-02   280   0.825E-01    0.844E-02
DAV:   2    -0.188996863128E+03   -0.88340E-03   -0.11089E-02   392   0.417E-01    0.377E-01
DAV:   3    -0.188996087452E+03    0.77568E-03   -0.11090E-02   280   0.328E-01    0.127E-01
DAV:   4    -0.188996012842E+03    0.74610E-04   -0.13127E-03   168   0.141E-01    0.490E-02
DAV:   5    -0.188996024704E+03   -0.11862E-04   -0.12536E-04   112   0.309E-02
     44 T=    66. E= -.18903043E+03 F= -.18899602E+03 E0= -.18899598E+03  EK= 0.23033E+00 SP= -.26E+00 SK= 0.14E-05
       N       E                     dE             d eps       ncg     rms          rms(c)
DAV:   1    -0.188991384688E+03    0.46282E-02   -0.17018E-02   280   0.864E-01    0.302E-01
DAV:   2    -0.189023576167E+03   -0.32191E-01   -0.37519E-01   336   0.188E+00    0.255E+00
DAV:   3    -0.188991275074E+03    0.32301E-01   -0.35562E-01   336   0.152E+00    0.217E-01
DAV:   4    -0.188991096856E+03    0.17822E-03   -0.91297E-03   224   0.221E-01    0.708E-02
DAV:   5    -0.188990936898E+03    0.15996E-03   -0.10493E-03   280   0.823E-02    0.254E-02
DAV:   6    -0.188990929148E+03    0.77497E-05   -0.22031E-04   112   0.458E-02
     45 T=    65. E= -.18903037E+03 F= -.18899093E+03 E0= -.18899088E+03  EK= 0.22744E+00 SP= -.27E+00 SK= 0.77E-02
       N       E                     dE             d eps       ncg     rms          rms(c)
DAV:   1    -0.188993528387E+03   -0.25915E-02   -0.18751E-02   280   0.852E-01    0.328E-01
DAV:   2    -0.189030493876E+03   -0.36965E-01   -0.43120E-01   336   0.201E+00    0.275E+00
DAV:   3    -0.188993483692E+03    0.37010E-01   -0.41925E-01   336   0.163E+00    0.238E-01
DAV:   4    -0.188993240622E+03    0.24307E-03   -0.11209E-02   224   0.244E-01    0.882E-02
DAV:   5    -0.188993012714E+03    0.22791E-03   -0.11121E-03   168   0.774E-02    0.341E-02
DAV:   6    -0.188993038963E+03   -0.26249E-04   -0.55405E-04   112   0.676E-02
     46 T=    68. E= -.18903023E+03 F= -.18899304E+03 E0= -.18899299E+03  EK= 0.23630E+00 SP= -.30E+00 SK= 0.31E-01
       N       E                     dE             d eps       ncg     rms          rms(c)
DAV:   1    -0.189003974853E+03   -0.10962E-01   -0.19137E-02   280   0.805E-01    0.227E-01
DAV:   2    -0.189016591916E+03   -0.12617E-01   -0.14780E-01   336   0.119E+00    0.156E+00
DAV:   3    -0.189004214919E+03    0.12377E-01   -0.14747E-01   336   0.105E+00    0.203E-01
DAV:   4    -0.189004083387E+03    0.13153E-03   -0.52228E-03   224   0.178E-01    0.897E-02
DAV:   5    -0.189004083315E+03    0.72407E-07   -0.25772E-03   168   0.158E-01    0.144E-01
DAV:   6    -0.189003966895E+03    0.11642E-03   -0.12661E-03   168   0.112E-01    0.323E-02
DAV:   7    -0.189003985305E+03   -0.18410E-04   -0.24618E-04   112   0.536E-02
     47 T=    74. E= -.18902998E+03 F= -.18900399E+03 E0= -.18900394E+03  EK= 0.25923E+00 SP= -.35E+00 SK= 0.69E-01
       N       E                     dE             d eps       ncg     rms          rms(c)
DAV:   1    -0.189025065056E+03   -0.21098E-01   -0.20370E-02   280   0.778E-01    0.492E-02
DAV:   2    -0.189025411013E+03   -0.34596E-03   -0.41017E-03   280   0.217E-01    0.241E-01
DAV:   3    -0.189025113327E+03    0.29769E-03   -0.41884E-03   224   0.196E-01    0.550E-02
DAV:   4    -0.189025104542E+03    0.87850E-05   -0.36125E-04   112   0.702E-02
     48 T=    86. E= -.18902968E+03 F= -.18902510E+03 E0= -.18902506E+03  EK= 0.29899E+00 SP= -.42E+00 SK= 0.12E+00
       N       E                     dE             d eps       ncg     rms          rms(c)
DAV:   1    -0.189057012717E+03   -0.31899E-01   -0.25877E-02   280   0.845E-01    0.145E-01
DAV:   2    -0.189060172982E+03   -0.31603E-02   -0.38325E-02   392   0.624E-01    0.759E-01
DAV:   3    -0.189057106406E+03    0.30666E-02   -0.38803E-02   280   0.587E-01    0.136E-01
DAV:   4    -0.189057147104E+03   -0.40698E-04   -0.28593E-03   168   0.155E-01    0.129E-01
DAV:   5    -0.189057074227E+03    0.72877E-04   -0.21529E-03   168   0.146E-01    0.902E-02
DAV:   6    -0.189057039018E+03    0.35209E-04   -0.44220E-04   112   0.727E-02
     49 T=   103. E= -.18902926E+03 F= -.18905704E+03 E0= -.18905699E+03  EK= 0.35865E+00 SP= -.51E+00 SK= 0.18E+00
       N       E                     dE             d eps       ncg     rms          rms(c)
DAV:   1    -0.189099876404E+03   -0.42802E-01   -0.30481E-02   224   0.926E-01    0.104E-01
DAV:   2    -0.189102968044E+03   -0.30916E-02   -0.36704E-02   392   0.637E-01    0.740E-01
DAV:   3    -0.189099908965E+03    0.30591E-02   -0.32364E-02   392   0.550E-01    0.780E-02
DAV:   4    -0.189099878604E+03    0.30361E-04   -0.10777E-03   168   0.896E-02    0.292E-02
DAV:   5    -0.189099867894E+03    0.10711E-04   -0.23175E-04   112   0.388E-02
     50 T=   127. E= -.18902883E+03 F= -.18909987E+03 E0= -.18909982E+03  EK= 0.44156E+00 SP= -.62E+00 SK= 0.25E+00
       N       E                     dE             d eps       ncg     rms          rms(c)
DAV:   1    -0.189152590829E+03   -0.52712E-01   -0.37125E-02   336   0.102E+00    0.973E-02
DAV:   2    -0.189154644721E+03   -0.20539E-02   -0.24974E-02   336   0.515E-01    0.612E-01
DAV:   3    -0.189152597937E+03    0.20468E-02   -0.23520E-02   280   0.461E-01    0.872E-02
DAV:   4    -0.189152573554E+03    0.24383E-04   -0.91396E-04   168   0.871E-02
     51 T=   158. E= -.18902833E+03 F= -.18915257E+03 E0= -.18915252E+03  EK= 0.55097E+00 SP= -.74E+00 SK= 0.31E+00
       N       E                     dE             d eps       ncg     rms          rms(c)
DAV:   1    -0.189213309026E+03   -0.60711E-01   -0.46920E-02   336   0.117E+00    0.197E-01
DAV:   2    -0.189224819528E+03   -0.11511E-01   -0.13649E-01   392   0.120E+00    0.146E+00
DAV:   3    -0.189213262701E+03    0.11557E-01   -0.12456E-01   280   0.102E+00    0.144E-01
DAV:   4    -0.189213182129E+03    0.80572E-04   -0.36637E-03   224   0.140E-01    0.585E-02
DAV:   5    -0.189213162103E+03    0.20026E-04   -0.90682E-04   280   0.872E-02
     52 T=   198. E= -.18902788E+03 F= -.18921316E+03 E0= -.18921311E+03  EK= 0.68949E+00 SP= -.87E+00 SK= 0.36E+00
       N       E                     dE             d eps       ncg     rms          rms(c)
DAV:   1    -0.189278576541E+03   -0.65394E-01   -0.57221E-02   392   0.132E+00    0.222E-01
DAV:   2    -0.189294198509E+03   -0.15622E-01   -0.18469E-01   336   0.138E+00    0.172E+00
DAV:   3    -0.189278541824E+03    0.15657E-01   -0.17156E-01   280   0.114E+00    0.157E-01
DAV:   4    -0.189278430474E+03    0.11135E-03   -0.49588E-03   224   0.159E-01    0.602E-02
DAV:   5    -0.189278341252E+03    0.89222E-04   -0.69553E-04   168   0.547E-02
     53 T=   246. E= -.18902752E+03 F= -.18927834E+03 E0= -.18927828E+03  EK= 0.85830E+00 SP= -.10E+01 SK= 0.40E+00
       N       E                     dE             d eps       ncg     rms          rms(c)
DAV:   1    -0.189343650002E+03   -0.65220E-01   -0.66598E-02   392   0.145E+00    0.140E-01
DAV:   2    -0.189349378922E+03   -0.57289E-02   -0.68071E-02   392   0.847E-01    0.102E+00
DAV:   3    -0.189343643540E+03    0.57354E-02   -0.60151E-02   336   0.706E-01    0.933E-02
DAV:   4    -0.189343666647E+03   -0.23107E-04   -0.20798E-03   168   0.105E-01    0.594E-02
DAV:   5    -0.189343610721E+03    0.55927E-04   -0.27546E-04   112   0.365E-02
     54 T=   303. E= -.18902743E+03 F= -.18934361E+03 E0= -.18934355E+03  EK= 0.10558E+01 SP= -.12E+01 SK= 0.41E+00
       N       E                     dE             d eps       ncg     rms          rms(c)
DAV:   1    -0.189403476628E+03   -0.59810E-01   -0.78160E-02   392   0.160E+00    0.133E-01
DAV:   2    -0.189406519086E+03   -0.30425E-02   -0.38326E-02   392   0.653E-01    0.743E-01
DAV:   3    -0.189403475689E+03    0.30434E-02   -0.37270E-02   336   0.580E-01    0.128E-01
DAV:   4    -0.189403412267E+03    0.63422E-04   -0.16491E-03   168   0.130E-01    0.499E-02
DAV:   5    -0.189403435898E+03   -0.23631E-04   -0.86779E-04   112   0.967E-02
     55 T=   366. E= -.18902788E+03 F= -.18940344E+03 E0= -.18940337E+03  EK= 0.12762E+01 SP= -.13E+01 SK= 0.40E+00
       N       E                     dE             d eps       ncg     rms          rms(c)
DAV:   1    -0.189451395712E+03   -0.47983E-01   -0.86070E-02   392   0.178E+00    0.934E-02
DAV:   2    -0.189452704680E+03   -0.13090E-02   -0.18201E-02   336   0.501E-01    0.475E-01
DAV:   3    -0.189451429839E+03    0.12748E-02   -0.17014E-02   336   0.406E-01    0.109E-01
DAV:   4    -0.189451364285E+03    0.65554E-04   -0.13410E-03   280   0.137E-01    0.443E-02
DAV:   5    -0.189451351544E+03    0.12741E-04   -0.39537E-04   280   0.601E-02
     56 T=   432. E= -.18902886E+03 F= -.18945135E+03 E0= -.18945127E+03  EK= 0.15082E+01 SP= -.14E+01 SK= 0.35E+00
       N       E                     dE             d eps       ncg     rms          rms(c)
DAV:   1    -0.189480270305E+03   -0.28906E-01   -0.98993E-02   448   0.193E+00    0.614E-02
DAV:   2    -0.189481193268E+03   -0.92296E-03   -0.11664E-02   224   0.299E-01    0.175E-01
DAV:   3    -0.189481035390E+03    0.15788E-03   -0.35880E-03   336   0.193E-01    0.954E-02
DAV:   4    -0.189481009097E+03    0.26294E-04   -0.84215E-04   280   0.999E-02
     57 T=   497. E= -.18903036E+03 F= -.18948101E+03 E0= -.18948091E+03  EK= 0.17347E+01 SP= -.16E+01 SK= 0.28E+00
       N       E                     dE             d eps       ncg     rms          rms(c)
DAV:   1    -0.189486833945E+03   -0.57986E-02   -0.15572E-01   336   0.207E+00    0.732E-02
DAV:   2    -0.189487373950E+03   -0.54000E-03   -0.90734E-03   224   0.324E-01    0.299E-01
DAV:   3    -0.189486816287E+03    0.55766E-03   -0.62748E-03   280   0.252E-01    0.760E-02
DAV:   4    -0.189486829875E+03   -0.13588E-04   -0.29803E-04   224   0.416E-02
     58 T=   554. E= -.18903213E+03 F= -.18948683E+03 E0= -.18948671E+03  EK= 0.19336E+01 SP= -.17E+01 SK= 0.20E+00
       N       E                     dE             d eps       ncg     rms          rms(c)
DAV:   1    -0.189465648185E+03    0.21168E-01   -0.17454E-01   392   0.220E+00    0.134E-01
DAV:   2    -0.189470082645E+03   -0.44345E-02   -0.56516E-02   224   0.805E-01    0.883E-01
DAV:   3    -0.189465487731E+03    0.45949E-02   -0.47545E-02   392   0.679E-01    0.954E-02
DAV:   4    -0.189465481211E+03    0.65198E-05   -0.16537E-03   280   0.927E-02    0.616E-02
DAV:   5    -0.189465451913E+03    0.29298E-04   -0.35837E-04   280   0.490E-02
     59 T=   596. E= -.18903385E+03 F= -.18946545E+03 E0= -.18946531E+03  EK= 0.20818E+01 SP= -.18E+01 SK= 0.11E+00
       N       E                     dE             d eps       ncg     rms          rms(c)
DAV:   1    -0.189416536914E+03    0.48944E-01   -0.14158E-01   392   0.225E+00    0.173E-01
DAV:   2    -0.189423596485E+03   -0.70596E-02   -0.87830E-02   224   0.984E-01    0.112E+00
DAV:   3    -0.189416419248E+03    0.71772E-02   -0.79906E-02   392   0.849E-01    0.139E-01
DAV:   4    -0.189416313486E+03    0.10576E-03   -0.26364E-03   336   0.121E-01    0.611E-02
DAV:   5    -0.189416323554E+03   -0.10068E-04   -0.11385E-03   280   0.982E-02    0.970E-02
DAV:   6    -0.189416268897E+03    0.54657E-04   -0.45262E-04   280   0.642E-02
     60 T=   619. E= -.18903491E+03 F= -.18941627E+03 E0= -.18941608E+03  EK= 0.21604E+01 SP= -.18E+01 SK= 0.47E-01
       N       E                     dE             d eps       ncg     rms          rms(c)
DAV:   1    -0.189342166712E+03    0.74157E-01   -0.14036E-01   392   0.228E+00    0.106E-01
DAV:   2    -0.189342354497E+03   -0.18778E-03   -0.50564E-03   224   0.307E-01    0.189E-01
DAV:   3    -0.189342284557E+03    0.69940E-04   -0.63331E-03   280   0.266E-01    0.173E-01
DAV:   4    -0.189342153841E+03    0.13072E-03   -0.22249E-03   224   0.170E-01    0.511E-02
DAV:   5    -0.189342166888E+03   -0.13047E-04   -0.23411E-04   112   0.645E-02
     61 T=   619. E= -.18903503E+03 F= -.18934217E+03 E0= -.18934192E+03  EK= 0.21602E+01 SP= -.19E+01 SK= 0.89E-02
       N       E                     dE             d eps       ncg     rms          rms(c)
DAV:   1    -0.189249548303E+03    0.92606E-01   -0.14596E-01   336   0.233E+00    0.312E-01
DAV:   2    -0.189275933795E+03   -0.26385E-01   -0.31562E-01   336   0.183E+00    0.222E+00
DAV:   3    -0.189249481429E+03    0.26452E-01   -0.29848E-01   336   0.149E+00    0.232E-01
DAV:   4    -0.189249131975E+03    0.34945E-03   -0.93684E-03   224   0.223E-01    0.861E-02
DAV:   5    -0.189249040006E+03    0.91969E-04   -0.25122E-03   280   0.143E-01    0.115E-01
DAV:   6    -0.189248944938E+03    0.95069E-04   -0.94904E-04   112   0.928E-02
     62 T=   597. E= -.18903416E+03 F= -.18924894E+03 E0= -.18924861E+03  EK= 0.20841E+01 SP= -.19E+01 SK= 0.59E-03
       N       E                     dE             d eps       ncg     rms          rms(c)
DAV:   1    -0.189145150210E+03    0.10389E+00   -0.14103E-01   392   0.227E+00    0.281E-01
DAV:   2    -0.189167866330E+03   -0.22716E-01   -0.27084E-01   392   0.171E+00    0.205E+00
DAV:   3    -0.189144925213E+03    0.22941E-01   -0.24557E-01   336   0.137E+00    0.183E-01
DAV:   4    -0.189144842380E+03    0.82834E-04   -0.81269E-03   224   0.206E-01    0.112E-01
DAV:   5    -0.189144647866E+03    0.19451E-03   -0.11768E-03   280   0.818E-02    0.540E-02
DAV:   6    -0.189144709208E+03   -0.61342E-04   -0.90207E-04   112   0.939E-02
     63 T=   558. E= -.18903274E+03 F= -.18914471E+03 E0= -.18914426E+03  EK= 0.19471E+01 SP= -.19E+01 SK= 0.17E-01
       N       E                     dE             d eps       ncg     rms          rms(c)
DAV:   1    -0.189038486074E+03    0.10616E+00   -0.13100E-01   392   0.219E+00    0.191E-01
DAV:   2    -0.189045585526E+03   -0.70995E-02   -0.87545E-02   392   0.100E+00    0.112E+00
DAV:   3    -0.189038589700E+03    0.69958E-02   -0.84622E-02   336   0.870E-01    0.187E-01
DAV:   4    -0.189038391342E+03    0.19836E-03   -0.32963E-03   224   0.175E-01    0.567E-02
DAV:   5    -0.189038373929E+03    0.17413E-04   -0.61252E-04   280   0.631E-02
     64 T=   507. E= -.18903115E+03 F= -.18903837E+03 E0= -.18903777E+03  EK= 0.17710E+01 SP= -.18E+01 SK= 0.49E-01
       N       E                     dE             d eps       ncg     rms          rms(c)
DAV:   1    -0.188938785409E+03    0.99606E-01   -0.11894E-01   448   0.207E+00    0.108E-01
DAV:   2    -0.188939927492E+03   -0.11421E-02   -0.17232E-02   280   0.529E-01    0.445E-01
DAV:   3    -0.188938870987E+03    0.10565E-02   -0.17750E-02   280   0.409E-01    0.165E-01
DAV:   4    -0.188938721927E+03    0.14906E-03   -0.22660E-03   224   0.180E-01    0.484E-02
DAV:   5    -0.188938701717E+03    0.20210E-04   -0.17073E-04   112   0.339E-02
     65 T=   453. E= -.18902985E+03 F= -.18893870E+03 E0= -.18893790E+03  EK= 0.15797E+01 SP= -.18E+01 SK= 0.84E-01
       N       E                     dE             d eps       ncg     rms          rms(c)
DAV:   1    -0.188853086787E+03    0.85635E-01   -0.10609E-01   448   0.193E+00    0.116E-01
DAV:   2    -0.188855860437E+03   -0.27736E-02   -0.33950E-02   336   0.639E-01    0.701E-01
DAV:   3    -0.188853100264E+03    0.27602E-02   -0.29653E-02   280   0.524E-01    0.912E-02
DAV:   4    -0.188853113254E+03   -0.12990E-04   -0.16172E-03   168   0.139E-01    0.689E-02
DAV:   5    -0.188853072257E+03    0.40997E-04   -0.17820E-04   112   0.304E-02
     66 T=   399. E= -.18902900E+03 F= -.18885307E+03 E0= -.18885204E+03  EK= 0.13938E+01 SP= -.17E+01 SK= 0.11E+00
       N       E                     dE             d eps       ncg     rms          rms(c)
DAV:   1    -0.188787445879E+03    0.65667E-01   -0.97879E-02   448   0.186E+00    0.310E-01
DAV:   2    -0.188817473563E+03   -0.30028E-01   -0.34784E-01   280   0.185E+00    0.247E+00
DAV:   3    -0.188787683881E+03    0.29790E-01   -0.34328E-01   280   0.151E+00    0.228E-01
DAV:   4    -0.188787159674E+03    0.52421E-03   -0.96511E-03   224   0.222E-01    0.821E-02
DAV:   5    -0.188787065445E+03    0.94228E-04   -0.22929E-03   280   0.140E-01    0.110E-01
DAV:   6    -0.188786983430E+03    0.82015E-04   -0.90556E-04   112   0.870E-02
     67 T=   352. E= -.18902870E+03 F= -.18878698E+03 E0= -.18878567E+03  EK= 0.12281E+01 SP= -.16E+01 SK= 0.13E+00
       N       E                     dE             d eps       ncg     rms          rms(c)
DAV:   1    -0.188744025334E+03    0.43040E-01   -0.88226E-02   392   0.178E+00    0.318E-01
DAV:   2    -0.188777120042E+03   -0.33095E-01   -0.38116E-01   280   0.194E+00    0.259E+00
DAV:   3    -0.188744204733E+03    0.32915E-01   -0.36760E-01   280   0.158E+00    0.224E-01
DAV:   4    -0.188743743509E+03    0.46122E-03   -0.10180E-02   224   0.227E-01    0.916E-02
DAV:   5    -0.188743568828E+03    0.17468E-03   -0.16611E-03   168   0.106E-01    0.756E-02
DAV:   6    -0.188743541956E+03    0.26872E-04   -0.62224E-04   112   0.718E-02
     68 T=   313. E= -.18902875E+03 F= -.18874354E+03 E0= -.18874191E+03  EK= 0.10913E+01 SP= -.15E+01 SK= 0.14E+00
       N       E                     dE             d eps       ncg     rms          rms(c)
DAV:   1    -0.188723931388E+03    0.19637E-01   -0.75903E-02   336   0.166E+00    0.196E-01
DAV:   2    -0.188733243380E+03   -0.93120E-02   -0.10924E-01   336   0.106E+00    0.135E+00
DAV:   3    -0.188724086925E+03    0.91565E-02   -0.10743E-01   336   0.914E-01    0.183E-01
DAV:   4    -0.188723868246E+03    0.21868E-03   -0.37190E-03   224   0.182E-01    0.598E-02
DAV:   5    -0.188723829890E+03    0.38356E-04   -0.58717E-04   112   0.580E-02
     69 T=   283. E= -.18902901E+03 F= -.18872383E+03 E0= -.18872184E+03  EK= 0.98663E+00 SP= -.14E+01 SK= 0.14E+00
       N       E                     dE             d eps       ncg     rms          rms(c)
DAV:   1    -0.188727087545E+03   -0.32193E-02   -0.67558E-02   280   0.159E+00    0.144E-01
DAV:   2    -0.188732613647E+03   -0.55261E-02   -0.64806E-02   392   0.822E-01    0.102E+00
DAV:   3    -0.188727137796E+03    0.54759E-02   -0.59635E-02   336   0.702E-01    0.117E-01
DAV:   4    -0.188727088694E+03    0.49102E-04   -0.23130E-03   224   0.146E-01    0.557E-02
DAV:   5    -0.188727051010E+03    0.37684E-04   -0.32694E-04   168   0.410E-02
     70 T=   262. E= -.18902940E+03 F= -.18872705E+03 E0= -.18872468E+03  EK= 0.91326E+00 SP= -.13E+01 SK= 0.13E+00
       N       E                     dE             d eps       ncg     rms          rms(c)
DAV:   1    -0.188750850167E+03   -0.23761E-01   -0.60846E-02   280   0.152E+00    0.160E-01
DAV:   2    -0.188759477345E+03   -0.86272E-02   -0.98727E-02   336   0.967E-01    0.132E+00
DAV:   3    -0.188750874233E+03    0.86031E-02   -0.92323E-02   280   0.826E-01    0.111E-01
DAV:   4    -0.188750842155E+03    0.32078E-04   -0.25965E-03   224   0.119E-01    0.582E-02
DAV:   5    -0.188750787032E+03    0.55123E-04   -0.35069E-04   112   0.514E-02
     71 T=   249. E= -.18902981E+03 F= -.18875079E+03 E0= -.18874800E+03  EK= 0.86782E+00 SP= -.13E+01 SK= 0.12E+00
       N       E                     dE             d eps       ncg     rms          rms(c)
DAV:   1    -0.188791541036E+03   -0.40699E-01   -0.56650E-02   280   0.152E+00    0.234E-01
DAV:   2    -0.188810341200E+03   -0.18800E-01   -0.21226E-01   336   0.139E+00    0.199E+00
DAV:   3    -0.188791668556E+03    0.18673E-01   -0.20365E-01   280   0.116E+00    0.177E-01
DAV:   4    -0.188791444965E+03    0.22359E-03   -0.53794E-03   224   0.169E-01    0.665E-02
DAV:   5    -0.188791378410E+03    0.66555E-04   -0.79967E-04   112   0.756E-02
     72 T=   242. E= -.18903025E+03 F= -.18879138E+03 E0= -.18878817E+03  EK= 0.84532E+00 SP= -.12E+01 SK= 0.11E+00
       N       E                     dE             d eps       ncg     rms          rms(c)
DAV:   1    -0.188844236676E+03   -0.52792E-01   -0.52420E-02   280   0.151E+00    0.208E-01
DAV:   2    -0.188859237920E+03   -0.15001E-01   -0.16845E-01   336   0.122E+00    0.180E+00
DAV:   3    -0.188844389334E+03    0.14849E-01   -0.16639E-01   280   0.105E+00    0.163E-01
DAV:   4    -0.188844203806E+03    0.18553E-03   -0.45083E-03   224   0.153E-01    0.638E-02
DAV:   5    -0.188844127517E+03    0.76289E-04   -0.73784E-04   112   0.718E-02
     73 T=   241. E= -.18903067E+03 F= -.18884413E+03 E0= -.18884048E+03  EK= 0.83987E+00 SP= -.11E+01 SK= 0.93E-01
       N       E                     dE             d eps       ncg     rms          rms(c)
DAV:   1    -0.188903667918E+03   -0.59464E-01   -0.49715E-02   336   0.152E+00    0.188E-01
DAV:   2    -0.188914885066E+03   -0.11217E-01   -0.12662E-01   392   0.105E+00    0.154E+00
DAV:   3    -0.188903765408E+03    0.11120E-01   -0.12361E-01   280   0.916E-01    0.148E-01
DAV:   4    -0.188903777595E+03   -0.12187E-04   -0.51364E-03   224   0.187E-01    0.137E-01
DAV:   5    -0.188903673909E+03    0.10369E-03   -0.26751E-03   280   0.151E-01    0.113E-01
DAV:   6    -0.188903621322E+03    0.52588E-04   -0.82783E-04   112   0.837E-02
     74 T=   242. E= -.18903104E+03 F= -.18890362E+03 E0= -.18889952E+03  EK= 0.84521E+00 SP= -.11E+01 SK= 0.80E-01
       N       E                     dE             d eps       ncg     rms          rms(c)
DAV:   1    -0.188964062216E+03   -0.60388E-01   -0.45577E-02   280   0.150E+00    0.178E-01
DAV:   2    -0.188971806998E+03   -0.77448E-02   -0.88287E-02   392   0.865E-01    0.129E+00
DAV:   3    -0.188964187005E+03    0.76200E-02   -0.91165E-02   336   0.793E-01    0.175E-01
DAV:   4    -0.188964166691E+03    0.20314E-04   -0.43095E-03   224   0.186E-01    0.142E-01
DAV:   5    -0.188964153273E+03    0.13417E-04   -0.36723E-03   280   0.173E-01    0.159E-01
DAV:   6    -0.188964034067E+03    0.11921E-03   -0.14010E-03   168   0.118E-01    0.323E-02
DAV:   7    -0.188964047721E+03   -0.13653E-04   -0.21311E-04   112   0.440E-02
     75 T=   245. E= -.18903135E+03 F= -.18896405E+03 E0= -.18895950E+03  EK= 0.85498E+00 SP= -.99E+00 SK= 0.68E-01
       N       E                     dE             d eps       ncg     rms          rms(c)
DAV:   1    -0.189019515831E+03   -0.55482E-01   -0.42136E-02   280   0.148E+00    0.407E-02
DAV:   2    -0.189019760636E+03   -0.24480E-03   -0.26390E-03   224   0.171E-01    0.202E-01
DAV:   3    -0.189019565422E+03    0.19521E-03   -0.22678E-03   280   0.134E-01    0.390E-02
DAV:   4    -0.189019573516E+03   -0.80937E-05   -0.17705E-04   280   0.509E-02
     76 T=   247. E= -.18903161E+03 F= -.18901957E+03 E0= -.18901460E+03  EK= 0.86318E+00 SP= -.93E+00 SK= 0.58E-01
       N       E                     dE             d eps       ncg     rms          rms(c)
DAV:   1    -0.189064749001E+03   -0.45184E-01   -0.40292E-02   168   0.149E+00    0.110E-01
DAV:   2    -0.189068366150E+03   -0.36171E-02   -0.40526E-02   336   0.595E-01    0.888E-01
DAV:   3    -0.189064768726E+03    0.35974E-02   -0.37615E-02   336   0.508E-01    0.840E-02
DAV:   4    -0.189064818193E+03   -0.49467E-04   -0.17898E-03   280   0.121E-01    0.919E-02
DAV:   5    -0.189064780766E+03    0.37427E-04   -0.87392E-04   280   0.821E-02
     77 T=   248. E= -.18903181E+03 F= -.18906478E+03 E0= -.18905940E+03  EK= 0.86454E+00 SP= -.88E+00 SK= 0.49E-01
       N       E                     dE             d eps       ncg     rms          rms(c)
DAV:   1    -0.189095231670E+03   -0.30413E-01   -0.38783E-02   448   0.150E+00    0.167E-01
DAV:   2    -0.189106170458E+03   -0.10939E-01   -0.11980E-01   392   0.985E-01    0.160E+00
DAV:   3    -0.189095298135E+03    0.10872E-01   -0.11952E-01   392   0.852E-01    0.141E-01
DAV:   4    -0.189095199807E+03    0.98328E-04   -0.31028E-03   224   0.131E-01    0.470E-02
DAV:   5    -0.189095149796E+03    0.50011E-04   -0.43906E-04   280   0.559E-02
     78 T=   245. E= -.18903195E+03 F= -.18909515E+03 E0= -.18908940E+03  EK= 0.85500E+00 SP= -.83E+00 SK= 0.41E-01
       N       E                     dE             d eps       ncg     rms          rms(c)
DAV:   1    -0.189107352169E+03   -0.12152E-01   -0.38178E-02   224   0.148E+00    0.149E-01
DAV:   2    -0.189115242289E+03   -0.78901E-02   -0.87239E-02   336   0.839E-01    0.135E+00
DAV:   3    -0.189107414067E+03    0.78282E-02   -0.85842E-02   280   0.736E-01    0.134E-01
DAV:   4    -0.189107389296E+03    0.24771E-04   -0.31517E-03   336   0.141E-01    0.709E-02
DAV:   5    -0.189107367371E+03    0.21925E-04   -0.11362E-03   224   0.909E-02    0.105E-01
DAV:   6    -0.189107322386E+03    0.44985E-04   -0.60215E-04   280   0.685E-02
     79 T=   238. E= -.18903198E+03 F= -.18910732E+03 E0= -.18910125E+03  EK= 0.83191E+00 SP= -.79E+00 SK= 0.33E-01
       N       E                     dE             d eps       ncg     rms          rms(c)
DAV:   1    -0.189099596513E+03    0.77709E-02   -0.32718E-02   336   0.143E+00    0.103E-01
DAV:   2    -0.189102888857E+03   -0.32923E-02   -0.35987E-02   392   0.556E-01    0.870E-01
DAV:   3    -0.189099672611E+03    0.32162E-02   -0.36872E-02   336   0.490E-01    0.119E-01
DAV:   4    -0.189099623303E+03    0.49308E-04   -0.13714E-03   168   0.106E-01    0.395E-02
DAV:   5    -0.189099621655E+03    0.16477E-05   -0.39143E-04   280   0.522E-02
     80 T=   228. E= -.18903198E+03 F= -.18909962E+03 E0= -.18909327E+03  EK= 0.79437E+00 SP= -.75E+00 SK= 0.24E-01
       N       E                     dE             d eps       ncg     rms          rms(c)
DAV:   1    -0.189072088235E+03    0.27535E-01   -0.32390E-02   280   0.138E+00    0.559E-02
DAV:   2    -0.189072875046E+03   -0.78681E-03   -0.88815E-03   336   0.286E-01    0.413E-01
DAV:   3    -0.189072136762E+03    0.73828E-03   -0.84792E-03   168   0.244E-01    0.619E-02
DAV:   4    -0.189072136171E+03    0.59086E-06   -0.57191E-04   280   0.806E-02
     81 T=   213. E= -.18903192E+03 F= -.18907214E+03 E0= -.18906557E+03  EK= 0.74333E+00 SP= -.72E+00 SK= 0.16E-01
       N       E                     dE             d eps       ncg     rms          rms(c)
DAV:   1    -0.189026889040E+03    0.45248E-01   -0.26931E-02   336   0.134E+00    0.135E-01
DAV:   2    -0.189034841015E+03   -0.79520E-02   -0.87291E-02   392   0.849E-01    0.136E+00
DAV:   3    -0.189026880448E+03    0.79606E-02   -0.83579E-02   280   0.729E-01    0.127E-01
DAV:   4    -0.189026889935E+03   -0.94872E-05   -0.27535E-03   336   0.118E-01    0.386E-02
DAV:   5    -0.189026855886E+03    0.34049E-04   -0.40694E-04   280   0.430E-02
     82 T=   195. E= -.18903178E+03 F= -.18902686E+03 E0= -.18902014E+03  EK= 0.68141E+00 SP= -.69E+00 SK= 0.81E-02
       N       E                     dE             d eps       ncg     rms          rms(c)
DAV:   1    -0.188967479183E+03    0.59411E-01   -0.23256E-02   448   0.125E+00    0.120E-01
DAV:   2    -0.188973569168E+03   -0.60900E-02   -0.66817E-02   280   0.737E-01    0.119E+00
DAV:   3    -0.188967511977E+03    0.60572E-02   -0.63472E-02   392   0.637E-01    0.109E-01
DAV:   4    -0.188967559064E+03   -0.47086E-04   -0.26374E-03   224   0.119E-01    0.728E-02
DAV:   5    -0.188967489921E+03    0.69142E-04   -0.45180E-04   280   0.438E-02
     83 T=   176. E= -.18903158E+03 F= -.18896749E+03 E0= -.18896069E+03  EK= 0.61260E+00 SP= -.68E+00 SK= 0.22E-02
       N       E                     dE             d eps       ncg     rms          rms(c)
DAV:   1    -0.188899507714E+03    0.68051E-01   -0.21433E-02   336   0.120E+00    0.243E-01
DAV:   2    -0.188926302682E+03   -0.26795E-01   -0.28769E-01   392   0.147E+00    0.267E+00
DAV:   3    -0.188899822191E+03    0.26480E-01   -0.30317E-01   392   0.125E+00    0.237E-01
DAV:   4    -0.188899523792E+03    0.29840E-03   -0.10041E-02   224   0.239E-01    0.111E-01
DAV:   5    -0.188899440125E+03    0.83667E-04   -0.34639E-03   280   0.156E-01    0.167E-01
DAV:   6    -0.188899324438E+03    0.11569E-03   -0.18217E-03   224   0.112E-01    0.491E-02
DAV:   7    -0.188899317669E+03    0.67691E-05   -0.31665E-04   112   0.567E-02
     84 T=   155. E= -.18903142E+03 F= -.18889932E+03 E0= -.18889249E+03  EK= 0.54190E+00 SP= -.67E+00 SK= 0.16E-04
       N       E                     dE             d eps       ncg     rms          rms(c)
DAV:   1    -0.188828731603E+03    0.70593E-01   -0.18838E-02   336   0.112E+00    0.274E-01
DAV:   2    -0.188862588698E+03   -0.33857E-01   -0.36254E-01   392   0.163E+00    0.301E+00
DAV:   3    -0.188829176642E+03    0.33412E-01   -0.38550E-01   392   0.140E+00    0.277E-01
DAV:   4    -0.188828706957E+03    0.46969E-03   -0.12205E-02   224   0.253E-01    0.105E-01
DAV:   5    -0.188828561921E+03    0.14504E-03   -0.29541E-03   280   0.133E-01    0.148E-01
DAV:   6    -0.188828465170E+03    0.96750E-04   -0.12725E-03   168   0.920E-02    0.299E-02
DAV:   7    -0.188828475439E+03   -0.10269E-04   -0.21182E-04   112   0.344E-02
     85 T=   136. E= -.18903123E+03 F= -.18882848E+03 E0= -.18882168E+03  EK= 0.47492E+00 SP= -.68E+00 SK= 0.39E-02
       N       E                     dE             d eps       ncg     rms          rms(c)
DAV:   1    -0.188761524945E+03    0.66940E-01   -0.14896E-02   392   0.991E-01    0.139E-01
DAV:   2    -0.188769657553E+03   -0.81326E-02   -0.88687E-02   392   0.818E-01    0.141E+00
DAV:   3    -0.188761672069E+03    0.79855E-02   -0.88908E-02   392   0.718E-01    0.140E-01
DAV:   4    -0.188761607480E+03    0.64589E-04   -0.25714E-03   224   0.118E-01    0.494E-02
DAV:   5    -0.188761573352E+03    0.34128E-04   -0.39166E-04   280   0.410E-02
     86 T=   120. E= -.18903097E+03 F= -.18876157E+03 E0= -.18875487E+03  EK= 0.41747E+00 SP= -.70E+00 SK= 0.16E-01
       N       E                     dE             d eps       ncg     rms          rms(c)
DAV:   1    -0.188704966648E+03    0.56641E-01   -0.12911E-02   448   0.923E-01    0.711E-02
DAV:   2    -0.188706155748E+03   -0.11891E-02   -0.14220E-02   224   0.409E-01    0.451E-01
DAV:   3    -0.188705278240E+03    0.87751E-03   -0.14375E-02   336   0.312E-01    0.190E-01
DAV:   4    -0.188705114457E+03    0.16378E-03   -0.25295E-03   280   0.153E-01    0.418E-02
DAV:   5    -0.188705100858E+03    0.13599E-04   -0.23446E-04   280   0.358E-02
     87 T=   108. E= -.18903071E+03 F= -.18870510E+03 E0= -.18869852E+03  EK= 0.37524E+00 SP= -.74E+00 SK= 0.39E-01
       N       E                     dE             d eps       ncg     rms          rms(c)
DAV:   1    -0.188664586863E+03    0.40528E-01   -0.20210E-02   336   0.867E-01    0.928E-02
DAV:   2    -0.188667326833E+03   -0.27400E-02   -0.30917E-02   280   0.539E-01    0.792E-01
DAV:   3    -0.188664734409E+03    0.25924E-02   -0.31400E-02   336   0.443E-01    0.162E-01
DAV:   4    -0.188664619628E+03    0.11478E-03   -0.24535E-03   280   0.154E-01    0.482E-02
DAV:   5    -0.188664609400E+03    0.10229E-04   -0.37683E-04   168   0.467E-02
     88 T=   101. E= -.18903039E+03 F= -.18866461E+03 E0= -.18865820E+03  EK= 0.35359E+00 SP= -.79E+00 SK= 0.75E-01
       N       E                     dE             d eps       ncg     rms          rms(c)
DAV:   1    -0.188644249848E+03    0.20370E-01   -0.15521E-02   392   0.825E-01    0.903E-02
DAV:   2    -0.188647254551E+03   -0.30047E-02   -0.32989E-02   280   0.493E-01    0.852E-01
DAV:   3    -0.188644294415E+03    0.29601E-02   -0.31191E-02   336   0.431E-01    0.773E-02
DAV:   4    -0.188644317607E+03   -0.23192E-04   -0.13432E-03   168   0.741E-02    0.609E-02
DAV:   5    -0.188644282934E+03    0.34673E-04   -0.19987E-04   280   0.295E-02
     89 T=   102. E= -.18903002E+03 F= -.18864428E+03 E0= -.18863808E+03  EK= 0.35738E+00 SP= -.86E+00 SK= 0.12E+00
       N       E                     dE             d eps       ncg     rms          rms(c)
DAV:   1    -0.188646557309E+03   -0.22397E-02   -0.14467E-02   448   0.845E-01    0.112E-01
DAV:   2    -0.188650587540E+03   -0.40302E-02   -0.45649E-02   280   0.568E-01    0.100E+00
DAV:   3    -0.188646552792E+03    0.40347E-02   -0.47832E-02   336   0.527E-01    0.131E-01
DAV:   4    -0.188646556730E+03   -0.39381E-05   -0.24677E-03   336   0.108E-01    0.760E-02
DAV:   5    -0.188646535816E+03    0.20914E-04   -0.13625E-03   280   0.965E-02    0.112E-01
DAV:   6    -0.188646486872E+03    0.48943E-04   -0.63470E-04   280   0.636E-02
     90 T=   112. E= -.18902966E+03 F= -.18864649E+03 E0= -.18864051E+03  EK= 0.39088E+00 SP= -.95E+00 SK= 0.18E+00
       N       E                     dE             d eps       ncg     rms          rms(c)
DAV:   1    -0.188671266345E+03   -0.24731E-01   -0.16936E-02   336   0.927E-01    0.110E-01
DAV:   2    -0.188673743008E+03   -0.24767E-02   -0.29979E-02   280   0.462E-01    0.787E-01
DAV:   3    -0.188671206417E+03    0.25366E-02   -0.33067E-02   336   0.444E-01    0.148E-01
DAV:   4    -0.188671229604E+03   -0.23188E-04   -0.20414E-03   168   0.104E-01    0.861E-02
DAV:   5    -0.188671238490E+03   -0.88854E-05   -0.16459E-03   280   0.109E-01    0.133E-01
DAV:   6    -0.188671181873E+03    0.56616E-04   -0.93211E-04   280   0.803E-02
     91 T=   131. E= -.18902922E+03 F= -.18867118E+03 E0= -.18866544E+03  EK= 0.45755E+00 SP= -.11E+01 SK= 0.24E+00
       N       E                     dE             d eps       ncg     rms          rms(c)
DAV:   1    -0.188716161959E+03   -0.44923E-01   -0.20586E-02   336   0.108E+00    0.798E-02
DAV:   2    -0.188716404612E+03   -0.24265E-03   -0.60296E-03   336   0.324E-01    0.196E-01
DAV:   3    -0.188716158892E+03    0.24572E-03   -0.53823E-03   280   0.248E-01    0.180E-01
DAV:   4    -0.188716045382E+03    0.11351E-03   -0.18330E-03   280   0.108E-01    0.526E-02
DAV:   5    -0.188716043052E+03    0.23304E-05   -0.19197E-04   168   0.399E-02
     92 T=   160. E= -.18902880E+03 F= -.18871604E+03 E0= -.18871054E+03  EK= 0.55964E+00 SP= -.12E+01 SK= 0.30E+00
       N       E                     dE             d eps       ncg     rms          rms(c)
DAV:   1    -0.188776523982E+03   -0.60479E-01   -0.26095E-02   280   0.123E+00    0.176E-01
DAV:   2    -0.188788425359E+03   -0.11901E-01   -0.13581E-01   392   0.997E-01    0.174E+00
DAV:   3    -0.188776564195E+03    0.11861E-01   -0.14114E-01   392   0.893E-01    0.246E-01
DAV:   4    -0.188776362061E+03    0.20213E-03   -0.68423E-03   224   0.231E-01    0.925E-02
DAV:   5    -0.188776321275E+03    0.40786E-04   -0.21128E-03   280   0.114E-01    0.144E-01
DAV:   6    -0.188776243482E+03    0.77794E-04   -0.96397E-04   168   0.809E-02
     93 T=   200. E= -.18902851E+03 F= -.18877624E+03 E0= -.18877097E+03  EK= 0.69763E+00 SP= -.13E+01 SK= 0.35E+00
       N       E                     dE             d eps       ncg     rms          rms(c)
DAV:   1    -0.188844974822E+03   -0.68654E-01   -0.32250E-02   392   0.136E+00    0.176E-01
DAV:   2    -0.188857502429E+03   -0.12528E-01   -0.14187E-01   392   0.993E-01    0.180E+00
DAV:   3    -0.188844947325E+03    0.12555E-01   -0.14478E-01   392   0.890E-01    0.203E-01
DAV:   4    -0.188844834994E+03    0.11233E-03   -0.53439E-03   224   0.179E-01    0.818E-02
DAV:   5    -0.188844755981E+03    0.79013E-04   -0.91679E-04   280   0.649E-02
     94 T=   249. E= -.18902844E+03 F= -.18884476E+03 E0= -.18883968E+03  EK= 0.86940E+00 SP= -.14E+01 SK= 0.39E+00
       N       E                     dE             d eps       ncg     rms          rms(c)
DAV:   1    -0.188913166263E+03   -0.68331E-01   -0.40712E-02   448   0.153E+00    0.145E-01
DAV:   2    -0.188920954753E+03   -0.77885E-02   -0.90368E-02   392   0.813E-01    0.140E+00
DAV:   3    -0.188913033849E+03    0.79209E-02   -0.89462E-02   336   0.722E-01    0.148E-01
DAV:   4    -0.188913108495E+03   -0.74645E-04   -0.43589E-03   224   0.146E-01    0.129E-01
DAV:   5    -0.188913014179E+03    0.94315E-04   -0.20307E-03   168   0.115E-01    0.116E-01
DAV:   6    -0.188912987778E+03    0.26401E-04   -0.76142E-04   112   0.665E-02
     95 T=   306. E= -.18902874E+03 F= -.18891299E+03 E0= -.18890806E+03  EK= 0.10693E+01 SP= -.16E+01 SK= 0.40E+00
       N       E                     dE             d eps       ncg     rms          rms(c)
DAV:   1    -0.188971751490E+03   -0.58737E-01   -0.48793E-02   448   0.168E+00    0.135E-01
DAV:   2    -0.188977534432E+03   -0.57829E-02   -0.69478E-02   280   0.720E-01    0.121E+00
DAV:   3    -0.188971586312E+03    0.59481E-02   -0.70222E-02   392   0.657E-01    0.147E-01
DAV:   4    -0.188971611081E+03   -0.24768E-04   -0.37281E-03   224   0.126E-01    0.111E-01
DAV:   5    -0.188971567882E+03    0.43199E-04   -0.22876E-03   280   0.123E-01    0.143E-01
DAV:   6    -0.188971500173E+03    0.67709E-04   -0.10227E-03   168   0.786E-02    0.368E-02
DAV:   7    -0.188971493493E+03    0.66801E-05   -0.55843E-05   112   0.159E-02
     96 T=   369. E= -.18902951E+03 F= -.18897149E+03 E0= -.18896669E+03  EK= 0.12871E+01 SP= -.17E+01 SK= 0.38E+00
       N       E                     dE             d eps       ncg     rms          rms(c)
DAV:   1    -0.189011143877E+03   -0.39644E-01   -0.59087E-02   448   0.182E+00    0.115E-01
DAV:   2    -0.189013784539E+03   -0.26407E-02   -0.34099E-02   224   0.510E-01    0.828E-01
DAV:   3    -0.189011013743E+03    0.27708E-02   -0.34368E-02   336   0.463E-01    0.136E-01
DAV:   4    -0.189011034221E+03   -0.20477E-04   -0.21706E-03   168   0.117E-01    0.984E-02
DAV:   5    -0.189011023473E+03    0.10748E-04   -0.14970E-03   280   0.105E-01    0.120E-01
DAV:   6    -0.189010991855E+03    0.31617E-04   -0.98592E-04   280   0.853E-02
     97 T=   432. E= -.18903075E+03 F= -.18901099E+03 E0= -.18900625E+03  EK= 0.15077E+01 SP= -.19E+01 SK= 0.34E+00
       N       E                     dE             d eps       ncg     rms          rms(c)
DAV:   1    -0.189024112432E+03   -0.13089E-01   -0.70883E-02   336   0.196E+00    0.105E-01
DAV:   2    -0.189026878405E+03   -0.27660E-02   -0.37155E-02   392   0.558E-01    0.853E-01
DAV:   3    -0.189023957697E+03    0.29207E-02   -0.36348E-02   280   0.476E-01    0.153E-01
DAV:   4    -0.189023859693E+03    0.98004E-04   -0.26203E-03   280   0.160E-01    0.664E-02
DAV:   5    -0.189023838343E+03    0.21350E-04   -0.64489E-04   168   0.684E-02
     98 T=   490. E= -.18903243E+03 F= -.18902384E+03 E0= -.18901912E+03  EK= 0.17117E+01 SP= -.20E+01 SK= 0.27E+00
       N       E                     dE             d eps       ncg     rms          rms(c)
DAV:   1    -0.189005086915E+03    0.18773E-01   -0.86058E-02   280   0.207E+00    0.941E-02
DAV:   2    -0.189007958627E+03   -0.28717E-02   -0.38004E-02   336   0.567E-01    0.857E-01
DAV:   3    -0.189004984600E+03    0.29740E-02   -0.35023E-02   280   0.461E-01    0.147E-01
DAV:   4    -0.189004907635E+03    0.76965E-04   -0.21682E-03   280   0.139E-01    0.743E-02
DAV:   5    -0.189004863553E+03    0.44082E-04   -0.18281E-04   224   0.302E-02
     99 T=   538. E= -.18903407E+03 F= -.18900486E+03 E0= -.18900014E+03  EK= 0.18780E+01 SP= -.21E+01 SK= 0.19E+00
       N       E                     dE             d eps       ncg     rms          rms(c)
DAV:   1    -0.188952774103E+03    0.52134E-01   -0.11010E-01   448   0.213E+00    0.125E-01
DAV:   2    -0.188957178780E+03   -0.44047E-02   -0.53373E-02   224   0.630E-01    0.105E+00
DAV:   3    -0.188952729758E+03    0.44490E-02   -0.50590E-02   336   0.554E-01    0.152E-01
DAV:   4    -0.188952729693E+03    0.65356E-07   -0.20992E-03   336   0.112E-01    0.103E-01
DAV:   5    -0.188952713856E+03    0.15837E-04   -0.68161E-04   280   0.643E-02
    100 T=   570. E= -.18903536E+03 F= -.18895271E+03 E0= -.18894796E+03  EK= 0.19879E+01 SP= -.22E+01 SK= 0.11E+00
       N       E                     dE             d eps       ncg     rms          rms(c)
DAV:   1    -0.188870143502E+03    0.82586E-01   -0.12717E-01   280   0.218E+00    0.161E-01
DAV:   2    -0.188878642131E+03   -0.84986E-02   -0.10002E-01   336   0.879E-01    0.146E+00
DAV:   3    -0.188870364196E+03    0.82779E-02   -0.10301E-01   392   0.760E-01    0.238E-01
DAV:   4    -0.188870161629E+03    0.20257E-03   -0.51349E-03   280   0.204E-01    0.973E-02
DAV:   5    -0.188870144767E+03    0.16862E-04   -0.15336E-03   280   0.998E-02    0.134E-01
DAV:   6    -0.188870091582E+03    0.53185E-04   -0.87669E-04   168   0.776E-02
    101 T=   581. E= -.18903603E+03 F= -.18887009E+03 E0= -.18886531E+03  EK= 0.20293E+01 SP= -.22E+01 SK= 0.53E-01
       N       E                     dE             d eps       ncg     rms          rms(c)
DAV:   1    -0.188763146310E+03    0.10700E+00   -0.11045E-01   448   0.216E+00    0.178E-01
DAV:   2    -0.188767176724E+03   -0.40304E-02   -0.49599E-02   280   0.721E-01    0.950E-01
DAV:   3    -0.188763714647E+03    0.34621E-02   -0.60952E-02   392   0.636E-01    0.347E-01
DAV:   4    -0.188763209041E+03    0.50561E-03   -0.84894E-03   336   0.307E-01    0.870E-02
DAV:   5    -0.188763167178E+03    0.41862E-04   -0.99410E-04   280   0.104E-01
    102 T=   573. E= -.18903578E+03 F= -.18876317E+03 E0= -.18875838E+03  EK= 0.20005E+01 SP= -.23E+01 SK= 0.15E-01
       N       E                     dE             d eps       ncg     rms          rms(c)
DAV:   1    -0.188641246480E+03    0.12196E+00   -0.10811E-01   336   0.210E+00    0.177E-01
DAV:   2    -0.188649169350E+03   -0.79229E-02   -0.92375E-02   392   0.902E-01    0.140E+00
DAV:   3    -0.188641573624E+03    0.75957E-02   -0.95833E-02   392   0.772E-01    0.256E-01
DAV:   4    -0.188641260250E+03    0.31337E-03   -0.78194E-03   336   0.287E-01    0.120E-01
DAV:   5    -0.188641318342E+03   -0.58092E-04   -0.34130E-03   280   0.154E-01    0.208E-01
DAV:   6    -0.188641158738E+03    0.15960E-03   -0.25929E-03   280   0.139E-01    0.610E-02
DAV:   7    -0.188641162116E+03   -0.33781E-05   -0.21941E-04   280   0.377E-02
    103 T=   547. E= -.18903487E+03 F= -.18864116E+03 E0= -.18863635E+03  EK= 0.19105E+01 SP= -.23E+01 SK= 0.50E-03
       N       E                     dE             d eps       ncg     rms          rms(c)
DAV:   1    -0.188513860641E+03    0.12730E+00   -0.95181E-02   448   0.201E+00    0.163E-01
DAV:   2    -0.188526217685E+03   -0.12357E-01   -0.13848E-01   224   0.101E+00    0.171E+00
DAV:   3    -0.188514972039E+03    0.11246E-01   -0.12858E-01   336   0.873E-01    0.194E-01
DAV:   4    -0.188514771167E+03    0.20087E-03   -0.47837E-03   336   0.169E-01    0.856E-02
DAV:   5    -0.188514732143E+03    0.39025E-04   -0.99693E-04   280   0.748E-02
    104 T=   509. E= -.18903356E+03 F= -.18851473E+03 E0= -.18850989E+03  EK= 0.17767E+01 SP= -.23E+01 SK= 0.43E-02
       N       E                     dE             d eps       ncg     rms          rms(c)
DAV:   1    -0.188394043493E+03    0.12073E+00   -0.13098E-01   224   0.193E+00    0.151E-01
DAV:   2    -0.188399308577E+03   -0.52651E-02   -0.56889E-02   224   0.665E-01    0.111E+00
DAV:   3    -0.188394417352E+03    0.48912E-02   -0.54382E-02   392   0.588E-01    0.151E-01
DAV:   4    -0.188394462916E+03   -0.45564E-04   -0.21685E-03   336   0.103E-01    0.110E-01
DAV:   5    -0.188394643633E+03   -0.18072E-03   -0.16965E-03   280   0.114E-01    0.172E-01
DAV:   6    -0.188394637389E+03    0.62448E-05   -0.31883E-03   280   0.151E-01    0.138E-01
DAV:   7    -0.188394624314E+03    0.13075E-04   -0.98831E-04   168   0.835E-02
    105 T=   464. E= -.18903236E+03 F= -.18839462E+03 E0= -.18838983E+03  EK= 0.16203E+01 SP= -.23E+01 SK= 0.19E-01
       N       E                     dE             d eps       ncg     rms          rms(c)
DAV:   1    -0.188289526891E+03    0.10511E+00   -0.11715E-01   336   0.183E+00    0.203E-01
DAV:   2    -0.188295336682E+03   -0.58098E-02   -0.61864E-02   224   0.716E-01    0.115E+00
DAV:   3    -0.188290156675E+03    0.51800E-02   -0.67376E-02   336   0.651E-01    0.226E-01
DAV:   4    -0.188290323172E+03   -0.16650E-03   -0.62776E-03   336   0.265E-01    0.204E-01
DAV:   5    -0.188290789730E+03   -0.46656E-03   -0.10450E-02   280   0.273E-01    0.377E-01
DAV:   6    -0.188290297521E+03    0.49221E-03   -0.77924E-03   280   0.244E-01    0.967E-02
DAV:   7    -0.188290300932E+03   -0.34110E-05   -0.66386E-04   280   0.743E-02
    106 T=   419. E= -.18903145E+03 F= -.18829030E+03 E0= -.18828555E+03  EK= 0.14619E+01 SP= -.22E+01 SK= 0.36E-01
       N       E                     dE             d eps       ncg     rms          rms(c)
DAV:   1    -0.188209225999E+03    0.81072E-01   -0.78747E-02   392   0.168E+00    0.150E-01
DAV:   2    -0.188215756737E+03   -0.65307E-02   -0.72995E-02   280   0.752E-01    0.126E+00
DAV:   3    -0.188209600876E+03    0.61559E-02   -0.78178E-02   336   0.697E-01    0.192E-01
DAV:   4    -0.188209416275E+03    0.18460E-03   -0.33657E-03   336   0.143E-01    0.100E-01
DAV:   5    -0.188209530754E+03   -0.11448E-03   -0.32840E-03   280   0.153E-01    0.207E-01
DAV:   6    -0.188209360186E+03    0.17057E-03   -0.21309E-03   280   0.125E-01    0.439E-02
DAV:   7    -0.188209382053E+03   -0.21866E-04   -0.27136E-04   168   0.526E-02
    107 T=   378. E= -.18903085E+03 F= -.18820938E+03 E0= -.18820472E+03  EK= 0.13183E+01 SP= -.22E+01 SK= 0.52E-01
       N       E                     dE             d eps       ncg     rms          rms(c)
DAV:   1    -0.188157214275E+03    0.52146E-01   -0.71038E-02   392   0.158E+00    0.588E-02
DAV:   2    -0.188158176474E+03   -0.96220E-03   -0.10714E-02   280   0.316E-01    0.462E-01
DAV:   3    -0.188157320392E+03    0.85608E-03   -0.10300E-02   280   0.266E-01    0.619E-02
DAV:   4    -0.188157306847E+03    0.13545E-04   -0.56005E-04   168   0.561E-02
    108 T=   344. E= -.18903064E+03 F= -.18815731E+03 E0= -.18815278E+03  EK= 0.12010E+01 SP= -.21E+01 SK= 0.63E-01
       N       E                     dE             d eps       ncg     rms          rms(c)
DAV:   1    -0.188137139373E+03    0.20181E-01   -0.68785E-02   336   0.153E+00    0.175E-01
DAV:   2    -0.188150833224E+03   -0.13694E-01   -0.15303E-01   336   0.109E+00    0.185E+00
DAV:   3    -0.188137395804E+03    0.13437E-01   -0.15180E-01   280   0.938E-01    0.165E-01
DAV:   4    -0.188137264342E+03    0.13146E-03   -0.57590E-03   224   0.165E-01    0.938E-02
DAV:   5    -0.188137186415E+03    0.77927E-04   -0.16071E-03   280   0.100E-01    0.117E-01
DAV:   6    -0.188137137862E+03    0.48553E-04   -0.78649E-04   168   0.698E-02
    109 T=   320. E= -.18903065E+03 F= -.18813714E+03 E0= -.18813280E+03  EK= 0.11163E+01 SP= -.21E+01 SK= 0.69E-01
       N       E                     dE             d eps       ncg     rms          rms(c)
DAV:   1    -0.188150189164E+03   -0.13003E-01   -0.67561E-02   336   0.150E+00    0.259E-01
DAV:   2    -0.188179197300E+03   -0.29008E-01   -0.32521E-01   336   0.156E+00    0.275E+00
DAV:   3    -0.188150808056E+03    0.28389E-01   -0.34949E-01   336   0.133E+00    0.282E-01
DAV:   4    -0.188150114785E+03    0.69327E-03   -0.11731E-02   224   0.245E-01    0.815E-02
DAV:   5    -0.188149906599E+03    0.20819E-03   -0.15275E-03   280   0.850E-02    0.454E-02
DAV:   6    -0.188149885999E+03    0.20600E-04   -0.37422E-04   168   0.478E-02
    110 T=   305. E= -.18903087E+03 F= -.18814989E+03 E0= -.18814579E+03  EK= 0.10662E+01 SP= -.20E+01 SK= 0.72E-01
       N       E                     dE             d eps       ncg     rms          rms(c)
DAV:   1    -0.188194689654E+03   -0.44783E-01   -0.70566E-02   448   0.150E+00    0.190E-01
DAV:   2    -0.188206908756E+03   -0.12219E-01   -0.14091E-01   280   0.106E+00    0.171E+00
DAV:   3    -0.188194948691E+03    0.11960E-01   -0.14739E-01   336   0.962E-01    0.233E-01
DAV:   4    -0.188194615060E+03    0.33363E-03   -0.65237E-03   280   0.226E-01    0.788E-02
DAV:   5    -0.188194517635E+03    0.97425E-04   -0.11843E-03   280   0.819E-02    0.844E-02
DAV:   6    -0.188194489869E+03    0.27766E-04   -0.55017E-04   280   0.611E-02
    111 T=   301. E= -.18903118E+03 F= -.18819449E+03 E0= -.18819067E+03  EK= 0.10491E+01 SP= -.20E+01 SK= 0.72E-01
       N       E                     dE             d eps       ncg     rms          rms(c)
DAV:   1    -0.188268287096E+03   -0.73769E-01   -0.89720E-02   336   0.154E+00    0.124E-01
DAV:   2    -0.188272540250E+03   -0.42532E-02   -0.51533E-02   224   0.658E-01    0.100E+00
DAV:   3    -0.188268291068E+03    0.42492E-02   -0.53616E-02   336   0.596E-01    0.163E-01
DAV:   4    -0.188268158367E+03    0.13270E-03   -0.29321E-03   336   0.169E-01    0.518E-02
[...]
DAV:   1    -0.188908794823E+03    0.88264E-02   -0.31836E-02   280   0.109E+00    0.310E-01
DAV:   2    -0.188952007848E+03   -0.43213E-01   -0.48179E-01   280   0.195E+00    0.337E+00
DAV:   3    -0.188910095497E+03    0.41912E-01   -0.53224E-01   336   0.162E+00    0.324E-01
DAV:   4    -0.188908744029E+03    0.13515E-02   -0.18759E-02   280   0.305E-01    0.109E-01
DAV:   5    -0.188908443141E+03    0.30089E-03   -0.27631E-03   280   0.117E-01    0.823E-02
DAV:   6    -0.188908400429E+03    0.42712E-04   -0.93958E-04   224   0.762E-02
    474 T=   128. E= -.18904050E+03 F= -.18890840E+03 E0= -.18890412E+03  EK= 0.44688E+00 SP= -.58E+00 SK= 0.40E-02
       N       E                     dE             d eps       ncg     rms          rms(c)
DAV:   1    -0.188917649443E+03   -0.92063E-02   -0.31038E-02   280   0.108E+00    0.335E-01
DAV:   2    -0.188966644633E+03   -0.48995E-01   -0.54489E-01   336   0.210E+00    0.356E+00
DAV:   3    -0.188919261885E+03    0.47383E-01   -0.60302E-01   336   0.179E+00    0.402E-01
DAV:   4    -0.188917635133E+03    0.16268E-02   -0.24042E-02   224   0.364E-01    0.151E-01
DAV:   5    -0.188917307599E+03    0.32753E-03   -0.55106E-03   280   0.204E-01    0.161E-01
DAV:   6    -0.188917165857E+03    0.14174E-03   -0.17928E-03   280   0.109E-01    0.442E-02
DAV:   7    -0.188917158719E+03    0.71380E-05   -0.28505E-04   280   0.481E-02
    475 T=   130. E= -.18904046E+03 F= -.18891716E+03 E0= -.18891297E+03  EK= 0.45271E+00 SP= -.58E+00 SK= 0.37E-05
       N       E                     dE             d eps       ncg     rms          rms(c)
DAV:   1    -0.188944466953E+03   -0.27301E-01   -0.26894E-02   392   0.102E+00    0.205E-01
DAV:   2    -0.188959446507E+03   -0.14980E-01   -0.16968E-01   280   0.124E+00    0.186E+00
DAV:   3    -0.188944930177E+03    0.14516E-01   -0.17536E-01   336   0.107E+00    0.280E-01
DAV:   4    -0.188944424416E+03    0.50576E-03   -0.86353E-03   224   0.268E-01    0.906E-02
DAV:   5    -0.188944410576E+03    0.13840E-04   -0.25637E-03   280   0.135E-01    0.153E-01
DAV:   6    -0.188944313278E+03    0.97298E-04   -0.14236E-03   168   0.100E-01    0.428E-02
DAV:   7    -0.188944319494E+03   -0.62158E-05   -0.19930E-04   280   0.417E-02
    476 T=   138. E= -.18904041E+03 F= -.18894432E+03 E0= -.18894029E+03  EK= 0.48330E+00 SP= -.58E+00 SK= 0.42E-02
       N       E                     dE             d eps       ncg     rms          rms(c)
DAV:   1    -0.188988850690E+03   -0.44537E-01   -0.26072E-02   392   0.983E-01    0.795E-02
DAV:   2    -0.188990652230E+03   -0.18015E-02   -0.21146E-02   336   0.481E-01    0.628E-01
DAV:   3    -0.188988981684E+03    0.16705E-02   -0.21905E-02   336   0.393E-01    0.143E-01
DAV:   4    -0.188988850511E+03    0.13117E-03   -0.18051E-03   280   0.150E-01    0.365E-02
DAV:   5    -0.188988845390E+03    0.51215E-05   -0.30290E-04   280   0.453E-02
    477 T=   154. E= -.18904038E+03 F= -.18898885E+03 E0= -.18898500E+03  EK= 0.53826E+00 SP= -.61E+00 SK= 0.15E-01
       N       E                     dE             d eps       ncg     rms          rms(c)
DAV:   1    -0.189048076058E+03   -0.59226E-01   -0.29523E-02   392   0.104E+00    0.570E-02
DAV:   2    -0.189048707810E+03   -0.63175E-03   -0.69873E-03   224   0.247E-01    0.357E-01
DAV:   3    -0.189048166111E+03    0.54170E-03   -0.68499E-03   280   0.224E-01    0.649E-02
DAV:   4    -0.189048167299E+03   -0.11883E-05   -0.40622E-04   280   0.648E-02
    478 T=   177. E= -.18904038E+03 F= -.18904817E+03 E0= -.18904452E+03  EK= 0.61621E+00 SP= -.64E+00 SK= 0.31E-01
       N       E                     dE             d eps       ncg     rms          rms(c)
DAV:   1    -0.189118421959E+03   -0.70256E-01   -0.32918E-02   392   0.114E+00    0.179E-01
DAV:   2    -0.189132568358E+03   -0.14146E-01   -0.15840E-01   392   0.111E+00    0.187E+00
DAV:   3    -0.189118670169E+03    0.13898E-01   -0.16119E-01   336   0.990E-01    0.178E-01
DAV:   4    -0.189118416624E+03    0.25354E-03   -0.51232E-03   224   0.166E-01    0.627E-02
DAV:   5    -0.189118331326E+03    0.85298E-04   -0.72197E-04   280   0.699E-02
    479 T=   205. E= -.18904049E+03 F= -.18911833E+03 E0= -.18911491E+03  EK= 0.71445E+00 SP= -.68E+00 SK= 0.47E-01
       N       E                     dE             d eps       ncg     rms          rms(c)
DAV:   1    -0.189194069947E+03   -0.75653E-01   -0.35852E-02   392   0.124E+00    0.233E-01
DAV:   2    -0.189218301206E+03   -0.24231E-01   -0.27067E-01   392   0.143E+00    0.248E+00
DAV:   3    -0.189194592359E+03    0.23709E-01   -0.28284E-01   336   0.127E+00    0.241E-01
DAV:   4    -0.189194054714E+03    0.53765E-03   -0.85844E-03   336   0.217E-01    0.638E-02
DAV:   5    -0.189193895312E+03    0.15940E-03   -0.87788E-04   280   0.675E-02    0.210E-02
DAV:   6    -0.189193887659E+03    0.76527E-05   -0.15150E-04   280   0.341E-02
    480 T=   237. E= -.18904071E+03 F= -.18919389E+03 E0= -.18919070E+03  EK= 0.82853E+00 SP= -.74E+00 SK= 0.61E-01
       N       E                     dE             d eps       ncg     rms          rms(c)
DAV:   1    -0.189268327802E+03   -0.74432E-01   -0.41126E-02   392   0.134E+00    0.192E-01
DAV:   2    -0.189283619584E+03   -0.15292E-01   -0.17232E-01   392   0.115E+00    0.196E+00
DAV:   3    -0.189268553353E+03    0.15066E-01   -0.17637E-01   336   0.103E+00    0.199E-01
DAV:   4    -0.189268300658E+03    0.25269E-03   -0.60869E-03   224   0.183E-01    0.809E-02
DAV:   5    -0.189268206924E+03    0.93734E-04   -0.11293E-03   280   0.825E-02    0.908E-02
DAV:   6    -0.189268179254E+03    0.27670E-04   -0.55472E-04   224   0.623E-02
    481 T=   273. E= -.18904113E+03 F= -.18926818E+03 E0= -.18926525E+03  EK= 0.95172E+00 SP= -.79E+00 SK= 0.69E-01
       N       E                     dE             d eps       ncg     rms          rms(c)
DAV:   1    -0.189333710448E+03   -0.65504E-01   -0.46002E-02   336   0.144E+00    0.169E-01
DAV:   2    -0.189344180631E+03   -0.10470E-01   -0.12045E-01   224   0.989E-01    0.160E+00
DAV:   3    -0.189333922338E+03    0.10258E-01   -0.12513E-01   336   0.883E-01    0.205E-01
DAV:   4    -0.189333682455E+03    0.23988E-03   -0.53542E-03   336   0.207E-01    0.961E-02
DAV:   5    -0.189333685321E+03   -0.28660E-05   -0.26674E-03   280   0.138E-01    0.167E-01
DAV:   6    -0.189333572064E+03    0.11326E-03   -0.13308E-03   280   0.949E-02    0.269E-02
DAV:   7    -0.189333571767E+03    0.29707E-06   -0.72719E-05   280   0.199E-02
    482 T=   308. E= -.18904174E+03 F= -.18933357E+03 E0= -.18933089E+03  EK= 0.10750E+01 SP= -.85E+00 SK= 0.71E-01
       N       E                     dE             d eps       ncg     rms          rms(c)
DAV:   1    -0.189382076397E+03   -0.48504E-01   -0.46368E-02   336   0.152E+00    0.996E-02
DAV:   2    -0.189384054050E+03   -0.19777E-02   -0.25402E-02   392   0.493E-01    0.695E-01
DAV:   3    -0.189382091306E+03    0.19627E-02   -0.27905E-02   224   0.436E-01    0.160E-01
DAV:   4    -0.189381977698E+03    0.11361E-03   -0.22232E-03   280   0.163E-01    0.585E-02
DAV:   5    -0.189382004517E+03   -0.26819E-04   -0.11962E-03   224   0.952E-02    0.122E-01
DAV:   6    -0.189381944734E+03    0.59783E-04   -0.71068E-04   280   0.720E-02
    483 T=   340. E= -.18904251E+03 F= -.18938194E+03 E0= -.18937949E+03  EK= 0.11872E+01 SP= -.91E+00 SK= 0.66E-01
       N       E                     dE             d eps       ncg     rms          rms(c)
DAV:   1    -0.189405615715E+03   -0.23611E-01   -0.51014E-02   448   0.159E+00    0.647E-02
DAV:   2    -0.189405718119E+03   -0.10240E-03   -0.45494E-03   224   0.241E-01    0.219E-01
DAV:   3    -0.189405575308E+03    0.14281E-03   -0.53834E-03   280   0.197E-01    0.156E-01
DAV:   4    -0.189405477797E+03    0.97511E-04   -0.14530E-03   280   0.125E-01    0.360E-02
DAV:   5    -0.189405465531E+03    0.12266E-04   -0.11613E-04   280   0.406E-02
    484 T=   366. E= -.18904332E+03 F= -.18940547E+03 E0= -.18940323E+03  EK= 0.12763E+01 SP= -.97E+00 SK= 0.56E-01
       N       E                     dE             d eps       ncg     rms          rms(c)
DAV:   1    -0.189397851537E+03    0.76263E-02   -0.54755E-02   336   0.166E+00    0.134E-01
DAV:   2    -0.189405512109E+03   -0.76606E-02   -0.89699E-02   392   0.830E-01    0.139E+00
DAV:   3    -0.189397721047E+03    0.77911E-02   -0.88565E-02   280   0.748E-01    0.136E-01
DAV:   4    -0.189397652384E+03    0.68663E-04   -0.31771E-03   336   0.128E-01    0.731E-02
DAV:   5    -0.189397601791E+03    0.50593E-04   -0.87691E-04   168   0.764E-02
    485 T=   381. E= -.18904402E+03 F= -.18939760E+03 E0= -.18939557E+03  EK= 0.13309E+01 SP= -.10E+01 SK= 0.43E-01
       N       E                     dE             d eps       ncg     rms          rms(c)
DAV:   1    -0.189354359868E+03    0.43293E-01   -0.57128E-02   392   0.170E+00    0.150E-01
DAV:   2    -0.189364088075E+03   -0.97282E-02   -0.11361E-01   280   0.924E-01    0.157E+00
DAV:   3    -0.189354226220E+03    0.98619E-02   -0.11345E-01   280   0.821E-01    0.152E-01
DAV:   4    -0.189354128839E+03    0.97381E-04   -0.35084E-03   224   0.137E-01    0.692E-02
DAV:   5    -0.189354053795E+03    0.75044E-04   -0.43062E-04   280   0.430E-02
    486 T=   385. E= -.18904438E+03 F= -.18935405E+03 E0= -.18935222E+03  EK= 0.13427E+01 SP= -.11E+01 SK= 0.30E-01
       N       E                     dE             d eps       ncg     rms          rms(c)
DAV:   1    -0.189274380701E+03    0.79748E-01   -0.56855E-02   336   0.172E+00    0.201E-01
DAV:   2    -0.189292927307E+03   -0.18547E-01   -0.21249E-01   336   0.126E+00    0.219E+00
DAV:   3    -0.189274342928E+03    0.18584E-01   -0.21678E-01   280   0.110E+00    0.196E-01
DAV:   4    -0.189274140312E+03    0.20262E-03   -0.69703E-03   224   0.190E-01    0.910E-02
DAV:   5    -0.189273985806E+03    0.15451E-03   -0.78620E-04   280   0.666E-02    0.358E-02
DAV:   6    -0.189274010309E+03   -0.24503E-04   -0.20089E-04   168   0.531E-02
    487 T=   375. E= -.18904449E+03 F= -.18927401E+03 E0= -.18927236E+03  EK= 0.13086E+01 SP= -.11E+01 SK= 0.20E-01
       N       E                     dE             d eps       ncg     rms          rms(c)
DAV:   1    -0.189161165345E+03    0.11282E+00   -0.10587E-01   336   0.177E+00    0.418E-01
DAV:   2    -0.189241229957E+03   -0.80065E-01   -0.90084E-01   336   0.260E+00    0.464E+00
DAV:   3    -0.189162764220E+03    0.78466E-01   -0.99582E-01   336   0.219E+00    0.454E-01
DAV:   4    -0.189160914735E+03    0.18495E-02   -0.33148E-02   224   0.415E-01    0.138E-01
DAV:   5    -0.189160325383E+03    0.58935E-03   -0.48802E-03   280   0.211E-01    0.960E-02
DAV:   6    -0.189160301260E+03    0.24123E-04   -0.20732E-03   168   0.123E-01    0.119E-01
DAV:   7    -0.189160232015E+03    0.69245E-04   -0.85259E-04   112   0.816E-02
    488 T=   353. E= -.18904431E+03 F= -.18916023E+03 E0= -.18915876E+03  EK= 0.12311E+01 SP= -.11E+01 SK= 0.14E-01
       N       E                     dE             d eps       ncg     rms          rms(c)
DAV:   1    -0.189019836514E+03    0.14046E+00   -0.10021E-01   224   0.170E+00    0.370E-01
DAV:   2    -0.189079992423E+03   -0.60156E-01   -0.67756E-01   336   0.225E+00    0.402E+00
DAV:   3    -0.189021147316E+03    0.58845E-01   -0.75608E-01   280   0.194E+00    0.426E-01
DAV:   4    -0.189019668102E+03    0.14792E-02   -0.24830E-02   280   0.366E-01    0.102E-01
DAV:   5    -0.189019281156E+03    0.38695E-03   -0.33473E-03   280   0.150E-01    0.978E-02
DAV:   6    -0.189019216670E+03    0.64486E-04   -0.10929E-03   224   0.795E-02    0.571E-02
DAV:   7    -0.189019200643E+03    0.16027E-04   -0.34979E-04   112   0.632E-02
    489 T=   321. E= -.18904382E+03 F= -.18901920E+03 E0= -.18901789E+03  EK= 0.11187E+01 SP= -.12E+01 SK= 0.10E-01
       N       E                     dE             d eps       ncg     rms          rms(c)
DAV:   1    -0.188860984229E+03    0.15823E+00   -0.53216E-02   448   0.154E+00    0.119E-01
DAV:   2    -0.188865336690E+03   -0.43525E-02   -0.54035E-02   280   0.660E-01    0.104E+00
DAV:   3    -0.188860806944E+03    0.45297E-02   -0.53429E-02   336   0.594E-01    0.125E-01
DAV:   4    -0.188860760938E+03    0.46006E-04   -0.23440E-03   224   0.122E-01    0.575E-02
DAV:   5    -0.188860714384E+03    0.46554E-04   -0.44898E-04   280   0.499E-02
    490 T=   282. E= -.18904324E+03 F= -.18886071E+03 E0= -.18885957E+03  EK= 0.98416E+00 SP= -.12E+01 SK= 0.10E-01
       N       E                     dE             d eps       ncg     rms          rms(c)
DAV:   1    -0.188696728625E+03    0.16403E+00   -0.50159E-02   448   0.145E+00    0.643E-02
DAV:   2    -0.188698208105E+03   -0.14795E-02   -0.21343E-02   392   0.415E-01    0.623E-01
DAV:   3    -0.188696482833E+03    0.17253E-02   -0.17871E-02   280   0.346E-01    0.668E-02
DAV:   4    -0.188696506982E+03   -0.24149E-04   -0.65068E-04   168   0.553E-02
    491 T=   241. E= -.18904266E+03 F= -.18869651E+03 E0= -.18869552E+03  EK= 0.84206E+00 SP= -.12E+01 SK= 0.13E-01
       N       E                     dE             d eps       ncg     rms          rms(c)
DAV:   1    -0.188539318654E+03    0.15716E+00   -0.48197E-02   392   0.133E+00    0.857E-02
DAV:   2    -0.188540680627E+03   -0.13620E-02   -0.19090E-02   392   0.391E-01    0.577E-01
DAV:   3    -0.188539121138E+03    0.15595E-02   -0.14249E-02   280   0.309E-01    0.885E-02
DAV:   4    -0.188539168432E+03   -0.47294E-04   -0.47480E-04   168   0.513E-02
    492 T=   203. E= -.18904203E+03 F= -.18853917E+03 E0= -.18853833E+03  EK= 0.70723E+00 SP= -.12E+01 SK= 0.21E-01
       N       E                     dE             d eps       ncg     rms          rms(c)
DAV:   1    -0.188401094798E+03    0.13803E+00   -0.44982E-02   392   0.126E+00    0.163E-01
DAV:   2    -0.188403547045E+03   -0.24522E-02   -0.32354E-02   392   0.604E-01    0.724E-01
DAV:   3    -0.188401237935E+03    0.23091E-02   -0.33901E-02   280   0.482E-01    0.247E-01
DAV:   4    -0.188401145437E+03    0.92498E-04   -0.42714E-03   224   0.233E-01    0.132E-01
DAV:   5    -0.188401188914E+03   -0.43476E-04   -0.10744E-03   168   0.938E-02    0.141E-01
DAV:   6    -0.188401282510E+03   -0.93597E-04   -0.21421E-03   168   0.131E-01    0.151E-01
DAV:   7    -0.188401405042E+03   -0.12253E-03   -0.11656E-03   168   0.930E-02    0.357E-02
DAV:   8    -0.188401391087E+03    0.13954E-04   -0.17801E-04   112   0.463E-02
    493 T=   170. E= -.18904177E+03 F= -.18840139E+03 E0= -.18840067E+03  EK= 0.59314E+00 SP= -.13E+01 SK= 0.35E-01
       N       E                     dE             d eps       ncg     rms          rms(c)
DAV:   1    -0.188291835204E+03    0.10957E+00   -0.34445E-02   392   0.119E+00    0.275E-01
DAV:   2    -0.188294678441E+03   -0.28432E-02   -0.27005E-02   336   0.575E-01    0.684E-01
DAV:   3    -0.188293311467E+03    0.13670E-02   -0.44220E-02   280   0.564E-01    0.412E-01
DAV:   4    -0.188293177386E+03    0.13408E-03   -0.12684E-02   336   0.439E-01    0.192E-01
DAV:   5    -0.188293614191E+03   -0.43680E-03   -0.80273E-03   224   0.310E-01    0.333E-01
DAV:   6    -0.188293256580E+03    0.35761E-03   -0.91547E-03   224   0.263E-01    0.155E-01
DAV:   7    -0.188293240670E+03    0.15910E-04   -0.14892E-03   168   0.100E-01    0.385E-02
DAV:   8    -0.188293223234E+03    0.17436E-04   -0.16791E-04   112   0.327E-02
    494 T=   146. E= -.18904136E+03 F= -.18829322E+03 E0= -.18829262E+03  EK= 0.51099E+00 SP= -.13E+01 SK= 0.59E-01
       N       E                     dE             d eps       ncg     rms          rms(c)
DAV:   1    -0.188222940632E+03    0.70300E-01   -0.38047E-02   280   0.111E+00    0.647E-02
DAV:   2    -0.188223209484E+03   -0.26885E-03   -0.61649E-03   392   0.249E-01    0.280E-01
DAV:   3    -0.188222792892E+03    0.41659E-03   -0.44615E-03   224   0.179E-01    0.819E-02
DAV:   4    -0.188222814640E+03   -0.21748E-04   -0.46271E-04   168   0.682E-02
    495 T=   135. E= -.18904089E+03 F= -.18822281E+03 E0= -.18822231E+03  EK= 0.46977E+00 SP= -.14E+01 SK= 0.92E-01
       N       E                     dE             d eps       ncg     rms          rms(c)
DAV:   1    -0.188194502627E+03    0.28290E-01   -0.39144E-02   392   0.111E+00    0.144E-01
DAV:   2    -0.188196078568E+03   -0.15759E-02   -0.16889E-02   392   0.393E-01    0.540E-01
DAV:   3    -0.188194626885E+03    0.14517E-02   -0.12507E-02   224   0.298E-01    0.131E-01
DAV:   4    -0.188194880420E+03   -0.25354E-03   -0.14703E-03   168   0.143E-01    0.148E-01
DAV:   5    -0.188195168075E+03   -0.28765E-03   -0.47004E-04   280   0.773E-02    0.105E-01
DAV:   6    -0.188195681577E+03   -0.51350E-03   -0.67329E-03   280   0.241E-01    0.348E-01
DAV:   7    -0.188195150694E+03    0.53088E-03   -0.58873E-03   280   0.209E-01    0.445E-02
DAV:   8    -0.188195142085E+03    0.86088E-05   -0.25876E-04   168   0.339E-02
    496 T=   136. E= -.18904053E+03 F= -.18819514E+03 E0= -.18819472E+03  EK= 0.47638E+00 SP= -.15E+01 SK= 0.13E+00
       N       E                     dE             d eps       ncg     rms          rms(c)
DAV:   1    -0.188210475104E+03   -0.15324E-01   -0.29593E-02   392   0.114E+00    0.171E-01
DAV:   2    -0.188213333311E+03   -0.28582E-02   -0.30753E-02   392   0.533E-01    0.762E-01
DAV:   3    -0.188210866005E+03    0.24673E-02   -0.34390E-02   280   0.498E-01    0.173E-01
DAV:   4    -0.188210983570E+03   -0.11757E-03   -0.37594E-03   224   0.236E-01    0.115E-01
DAV:   5    -0.188210895367E+03    0.88203E-04   -0.93449E-04   168   0.151E-01
    497 T=   153. E= -.18904011E+03 F= -.18821090E+03 E0= -.18821054E+03  EK= 0.53547E+00 SP= -.15E+01 SK= 0.18E+00
       N       E                     dE             d eps       ncg     rms          rms(c)
DAV:   1    -0.188267596349E+03   -0.56613E-01   -0.38708E-02   392   0.132E+00    0.377E-01
DAV:   2    -0.188325633841E+03   -0.58037E-01   -0.66095E-01   392   0.228E+00    0.375E+00
DAV:   3    -0.188268389730E+03    0.57244E-01   -0.68773E-01   336   0.188E+00    0.361E-01
DAV:   4    -0.188267526505E+03    0.86322E-03   -0.22729E-02   224   0.322E-01    0.118E-01
DAV:   5    -0.188267133008E+03    0.39350E-03   -0.37154E-03   280   0.146E-01    0.585E-02
DAV:   6    -0.188267075472E+03    0.57536E-04   -0.85827E-04   168   0.775E-02
    498 T=   186. E= -.18903985E+03 F= -.18826708E+03 E0= -.18826677E+03  EK= 0.64921E+00 SP= -.16E+01 SK= 0.23E+00
       N       E                     dE             d eps       ncg     rms          rms(c)
DAV:   1    -0.188357270971E+03   -0.90138E-01   -0.44338E-02   448   0.146E+00    0.418E-01
DAV:   2    -0.188428980142E+03   -0.71709E-01   -0.81807E-01   336   0.253E+00    0.428E+00
DAV:   3    -0.188358860580E+03    0.70120E-01   -0.90991E-01   280   0.209E+00    0.434E-01
DAV:   4    -0.188357245321E+03    0.16153E-02   -0.32133E-02   224   0.396E-01    0.152E-01
DAV:   5    -0.188356661336E+03    0.58398E-03   -0.57182E-03   280   0.215E-01    0.819E-02
DAV:   6    -0.188356595328E+03    0.66008E-04   -0.16076E-03   168   0.108E-01    0.700E-02
DAV:   7    -0.188356553774E+03    0.41555E-04   -0.58025E-04   280   0.581E-02
    499 T=   234. E= -.18903975E+03 F= -.18835655E+03 E0= -.18835628E+03  EK= 0.81662E+00 SP= -.18E+01 SK= 0.26E+00
       N       E                     dE             d eps       ncg     rms          rms(c)
DAV:   1    -0.188468605772E+03   -0.11201E+00   -0.43048E-02   448   0.155E+00    0.254E-01
DAV:   2    -0.188493682231E+03   -0.25076E-01   -0.28728E-01   336   0.156E+00    0.241E+00
DAV:   3    -0.188468984116E+03    0.24698E-01   -0.29433E-01   280   0.129E+00    0.248E-01
DAV:   4    -0.188468678869E+03    0.30525E-03   -0.11243E-02   224   0.221E-01    0.100E-01
DAV:   5    -0.188468451293E+03    0.22758E-03   -0.19339E-03   280   0.105E-01    0.443E-02
DAV:   6    -0.188468457089E+03   -0.57959E-05   -0.78326E-04   168   0.732E-02
    500 T=   296. E= -.18904011E+03 F= -.18846846E+03 E0= -.18846821E+03  EK= 0.10315E+01 SP= -.19E+01 SK= 0.27E+00
