<?xml version="1.0" encoding="ISO-8859-1"?>
<modeling>
 <generator>
  <i name="program" type="string">vasp </i>
  <i name="version" type="string">6.3.2  </i>
  <i name="subversion" type="string">27Jun22 (build May 08 2025 20:43:02) complex                          parallel </i>
  <i name="platform" type="string">LinuxIFC </i>
  <i name="date" type="string">2025 08 26 </i>
  <i name="time" type="string">11:31:34 </i>
 </generator>
 <incar>
  <i type="string" name="SYSTEM">MD-OXC</i>
  <i type="string" name="PREC">Normal</i>
  <i type="int" name="IBRION">     0</i>
  <i type="int" name="NSW">   500</i>
  <i type="int" name="ISYM">     0</i>
  <i type="int" name="NBLOCK">     1</i>
  <i name="POTIM">      1.00000000</i>
  <i name="TEBEG">    300.00000000</i>
  <i name="TEEND">    300.00000000</i>
  <i name="SMASS">      0.00000000</i>
  <i type="int" name="ISMEAR">     0</i>
  <i name="SIGMA">      0.10000000</i>
  <i type="logical" name="LWAVE"> F  </i>
  <i type="logical" name="LCHARG"> F  </i>
  <i type="int" name="MDALGO">     2</i>
 </incar>
 <primitive_cell>
  <structure name="primitive_cell" >
   <crystal>
    <varray name="basis" >
     <v>      10.41910241       0.00000000       0.00000000 </v>
     <v>       0.00000000       6.06994347      -0.00000005 </v>
     <v>       0.00000000      -0.00000178       4.74918846 </v>
    </varray>
    <i name="volume">    300.35464797 </i>
    <varray name="rec_basis" >
     <v>       0.09597756       0.00000000       0.00000000 </v>
     <v>       0.00000000       0.16474618       0.00000006 </v>
     <v>       0.00000000       0.00000000       0.21056229 </v>
    </varray>
   </crystal>
   <varray name="positions" >
    <v>       0.09399426       0.25000000       0.41810991 </v>
    <v>       0.40600574       0.75000000       0.91811091 </v>
    <v>       0.59399426       0.25000000       0.08188809 </v>
    <v>       0.90600574       0.75000000       0.58188909 </v>
    <v>       0.00000000       0.00000000       0.00000000 </v>
    <v>       0.50000000       0.50000000       0.50000000 </v>
    <v>       0.50000000       0.00000000       0.50000000 </v>
    <v>       0.00000000       0.50000000       1.00000000 </v>
    <v>       0.09604145       0.25000000       0.74165917 </v>
    <v>       0.83476027       0.54656004       0.71474048 </v>
    <v>       0.83476027       0.95344096       0.71474048 </v>
    <v>       0.90395955       0.75000000       0.25834183 </v>
    <v>       0.04372218       0.75000000       0.70783089 </v>
    <v>       0.40395855       0.75000000       0.24165817 </v>
    <v>       0.16523973       0.04656004       0.28526052 </v>
    <v>       0.66523973       0.45343996       0.21473948 </v>
    <v>       0.33476027       0.54656004       0.78526052 </v>
    <v>       0.33476027       0.95344096       0.78526052 </v>
    <v>       0.95627782       0.25000000       0.29217011 </v>
    <v>       0.45627782       0.25000000       0.20782989 </v>
    <v>       0.54372218       0.75000000       0.79217111 </v>
    <v>       0.59604145       0.25000000       0.75834283 </v>
    <v>       0.66523973       0.04656004       0.21473948 </v>
    <v>       0.16523973       0.45343996       0.28526052 </v>
    <v>       0.78094697       0.25000000       0.52535704 </v>
    <v>       0.71905303       0.75000000       0.02535904 </v>
    <v>       0.28094697       0.25000000       0.97464196 </v>
    <v>       0.21905303       0.75000000       0.47464196 </v>
   </varray>
  </structure>
  <varray name="primitive_index" >
   <v type="int" >        1 </v>
   <v type="int" >        2 </v>
   <v type="int" >        3 </v>
   <v type="int" >        4 </v>
   <v type="int" >        5 </v>
   <v type="int" >        6 </v>
   <v type="int" >        7 </v>
   <v type="int" >        8 </v>
   <v type="int" >        9 </v>
   <v type="int" >       10 </v>
   <v type="int" >       11 </v>
   <v type="int" >       12 </v>
   <v type="int" >       13 </v>
   <v type="int" >       14 </v>
   <v type="int" >       15 </v>
   <v type="int" >       16 </v>
   <v type="int" >       17 </v>
   <v type="int" >       18 </v>
   <v type="int" >       19 </v>
   <v type="int" >       20 </v>
   <v type="int" >       21 </v>
   <v type="int" >       22 </v>
   <v type="int" >       23 </v>
   <v type="int" >       24 </v>
   <v type="int" >       25 </v>
   <v type="int" >       26 </v>
   <v type="int" >       27 </v>
   <v type="int" >       28 </v>
  </varray>
 </primitive_cell>
 <kpoints>
  <generation param="Gamma">
   <v type="int" name="divisions">       1        1        1 </v>
   <v name="usershift">      0.00000000       0.00000000       0.00000000 </v>
   <v name="genvec1">      1.00000000       0.00000000       0.00000000 </v>
   <v name="genvec2">      0.00000000       1.00000000       0.00000000 </v>
   <v name="genvec3">      0.00000000      -0.00000000       1.00000000 </v>
   <v name="shift">      0.00000000       0.00000000       0.00000000 </v>
  </generation>
  <varray name="kpointlist" >
   <v>       0.00000000       0.00000000       0.00000000 </v>
  </varray>
  <varray name="weights" >
   <v>       1.00000000 </v>
  </varray>
 </kpoints>
 <parameters>
  <separator name="general" >
   <i type="string" name="SYSTEM">MD-OXC</i>
   <i type="logical" name="LCOMPAT"> F  </i>
  </separator>
  <separator name="electronic" >
   <i type="string" name="PREC">normal</i>
   <i name="ENMAX">    400.00000000</i>
   <i name="ENAUG">    605.39200000</i>
   <i name="EDIFF">      0.00010000</i>
   <i type="int" name="IALGO">    38</i>
   <i type="int" name="IWAVPR">    12</i>
   <i type="int" name="NBANDS">   112</i>
   <i type="int" name="NBANDSLOW">    -1</i>
   <i type="int" name="NBANDSHIGH">    -1</i>
   <i name="NELECT">    160.00000000</i>
   <i type="int" name="TURBO">     0</i>
   <i type="int" name="IRESTART">     0</i>
   <i type="int" name="NREBOOT">     0</i>
   <i type="int" name="NMIN">     0</i>
   <i name="EREF">      0.00000000</i>
   <separator name="electronic smearing" >
    <i type="int" name="ISMEAR">     0</i>
    <i name="SIGMA">      0.10000000</i>
    <i name="KSPACING">      0.50000000</i>
    <i type="logical" name="KGAMMA"> T  </i>
    <i type="logical" name="KBLOWUP"> T  </i>
   </separator>
   <separator name="electronic projectors" >
    <i type="logical" name="LREAL"> F  </i>
    <v name="ROPT">      0.00000000      0.00000000      0.00000000      0.00000000</v>
    <i type="int" name="LMAXPAW">  -100</i>
    <i type="int" name="LMAXMIX">     2</i>
    <i type="logical" name="NLSPLINE"> F  </i>
   </separator>
   <separator name="electronic startup" >
    <i type="int" name="ISTART">     0</i>
    <i type="int" name="ICHARG">     2</i>
    <i type="int" name="INIWAV">     1</i>
   </separator>
   <separator name="electronic spin" >
    <i type="int" name="ISPIN">     1</i>
    <i type="logical" name="LNONCOLLINEAR"> F  </i>
    <v name="MAGMOM">      1.00000000      1.00000000      1.00000000      1.00000000      1.00000000      1.00000000      1.00000000      1.00000000      1.00000000      1.00000000      1.00000000      1.00000000      1.00000000      1.00000000      1.00000000      1.00000000      1.00000000      1.00000000      1.00000000      1.00000000
      1.00000000      1.00000000      1.00000000      1.00000000      1.00000000      1.00000000      1.00000000      1.00000000</v>
    <i name="NUPDOWN">     -1.00000000</i>
    <i type="logical" name="LSORBIT"> F  </i>
    <v name="SAXIS">      0.00000000      0.00000000      1.00000000</v>
    <i type="logical" name="LSPIRAL"> F  </i>
    <v name="QSPIRAL">      0.00000000      0.00000000      0.00000000</v>
    <i type="logical" name="LZEROZ"> F  </i>
   </separator>
   <separator name="electronic exchange-correlation" >
    <i type="logical" name="LASPH"> F  </i>
    <i type="logical" name="LMETAGGA"> F  </i>
   </separator>
   <separator name="electronic convergence" >
    <i type="int" name="NELM">    60</i>
    <i type="int" name="NELMDL">    -5</i>
    <i type="int" name="NELMIN">     2</i>
    <i name="ENINI">    400.00000000</i>
    <separator name="electronic convergence detail" >
     <i type="logical" name="LDIAG"> T  </i>
     <i type="logical" name="LSUBROT"> F  </i>
     <i name="WEIMIN">      0.00100000</i>
     <i name="EBREAK">      0.00000022</i>
     <i name="DEPER">      0.30000000</i>
     <i type="int" name="NRMM">     4</i>
     <i name="TIME">      0.40000000</i>
    </separator>
   </separator>
   <separator name="electronic mixer" >
    <i name="AMIX">      0.40000000</i>
    <i name="BMIX">      1.00000000</i>
    <i name="AMIN">      0.10000000</i>
    <i name="AMIX_MAG">      1.60000000</i>
    <i name="BMIX_MAG">      1.00000000</i>
    <separator name="electronic mixer details" >
     <i type="int" name="IMIX">     4</i>
     <i type="logical" name="MIXFIRST"> F  </i>
     <i type="int" name="MAXMIX">   -45</i>
     <i name="WC">    100.00000000</i>
     <i type="int" name="INIMIX">     1</i>
     <i type="int" name="MIXPRE">     1</i>
     <i type="int" name="MREMOVE">     5</i>
    </separator>
   </separator>
   <separator name="electronic dipolcorrection" >
    <i type="logical" name="LDIPOL"> F  </i>
    <i type="logical" name="LMONO"> F  </i>
    <i type="int" name="IDIPOL">     0</i>
    <i name="EPSILON">      1.00000000</i>
    <v name="DIPOL">   -100.00000000   -100.00000000   -100.00000000</v>
    <i name="EFIELD">      0.00000000</i>
   </separator>
  </separator>
  <separator name="grids" >
   <i type="int" name="NGX">    54</i>
   <i type="int" name="NGY">    30</i>
   <i type="int" name="NGZ">    24</i>
   <i type="int" name="NGXF">   108</i>
   <i type="int" name="NGYF">    60</i>
   <i type="int" name="NGZF">    48</i>
   <i type="logical" name="ADDGRID"> F  </i>
  </separator>
  <separator name="ionic" >
   <i type="int" name="NSW">   500</i>
   <i type="int" name="IBRION">     0</i>
   <i type="int" name="MDALGO">     2</i>
   <i type="int" name="ISIF">     0</i>
   <i name="PSTRESS">      0.00000000</i>
   <i name="EDIFFG">      0.00100000</i>
   <i type="int" name="NFREE">     0</i>
   <i name="POTIM">      1.00000000</i>
   <i name="SMASS">      0.01508595</i>
   <i name="SCALEE">      1.00000000</i>
  </separator>
  <separator name="ionic md" >
   <i name="TEBEG">    300.00000000</i>
   <i name="TEEND">    300.00000000</i>
   <i type="int" name="NBLOCK">     1</i>
   <i type="int" name="KBLOCK">   500</i>
   <i type="int" name="NPACO">   256</i>
   <i name="APACO">     10.00000000</i>
  </separator>
  <separator name="symmetry" >
   <i type="int" name="ISYM">     0</i>
   <i name="SYMPREC">      0.00001000</i>
  </separator>
  <separator name="dos" >
   <i type="int" name="LORBIT">     0</i>
   <v name="RWIGS">     -1.00000000     -1.00000000     -1.00000000     -1.00000000</v>
   <i type="int" name="NEDOS">   301</i>
   <i name="EMIN">     10.00000000</i>
   <i name="EMAX">    -10.00000000</i>
   <i name="EFERMI">      0.00000000</i>
  </separator>
  <separator name="writing" >
   <i type="int" name="NWRITE">     2</i>
   <i type="logical" name="LWAVE"> F  </i>
   <i type="logical" name="LDOWNSAMPLE"> F  </i>
   <i type="logical" name="LCHARG"> F  </i>
   <i type="logical" name="LPARD"> F  </i>
   <i type="logical" name="LVTOT"> F  </i>
   <i type="logical" name="LVHAR"> F  </i>
   <i type="logical" name="LELF"> F  </i>
   <i type="logical" name="LOPTICS"> F  </i>
   <v name="STM">      0.00000000      0.00000000      0.00000000      0.00000000      0.00000000      0.00000000      0.00000000</v>
  </separator>
  <separator name="performance" >
   <i type="int" name="NPAR">    56</i>
   <i type="int" name="NSIM">     4</i>
   <i type="int" name="NBLK">    -1</i>
   <i type="logical" name="LPLANE"> T  </i>
   <i type="logical" name="LSCALAPACK"> T  </i>
   <i type="logical" name="LSCAAWARE"> T  </i>
   <i type="logical" name="LSCALU"> F  </i>
   <i type="logical" name="LASYNC"> F  </i>
   <i type="logical" name="LORBITALREAL"> F  </i>
  </separator>
  <separator name="miscellaneous" >
   <i type="int" name="IDIOT">     3</i>
   <i type="int" name="PHON_NSTRUCT">    -1</i>
   <i type="logical" name="LMUSIC"> F  </i>
   <v name="POMASS">     30.97400000      7.01000000     16.00000000     55.84700000</v>
   <v name="DARWINR">      0.00000000      0.00000000      0.00000000      0.00000000</v>
   <v name="DARWINV">      1.00000000      1.00000000      1.00000000      1.00000000</v>
   <i type="logical" name="LCORR"> T  </i>
  </separator>
  <i type="logical" name="GGA_COMPAT"> T  </i>
  <i type="logical" name="LBERRY"> F  </i>
  <i type="int" name="ICORELEVEL">     0</i>
  <i type="logical" name="LDAU"> F  </i>
  <i type="int" name="I_CONSTRAINED_M">     0</i>
  <separator name="electronic exchange-correlation" >
   <i type="string" name="GGA">--</i>
   <i type="int" name="VOSKOWN">     0</i>
   <i type="logical" name="LHFCALC"> F  </i>
   <i type="string" name="PRECFOCK"></i>
   <i type="logical" name="LSYMGRAD"> F  </i>
   <i type="logical" name="LHFONE"> F  </i>
   <i type="logical" name="LRHFCALC"> F  </i>
   <i type="logical" name="LTHOMAS"> F  </i>
   <i type="logical" name="LMODELHF"> F  </i>
   <i type="logical" name="LFOCKACE"> F  </i>
   <i name="ENCUT4O">     -1.00000000</i>
   <i type="int" name="EXXOEP">     0</i>
   <i type="int" name="FOURORBIT">     0</i>
   <i name="AEXX">      0.00000000</i>
   <i name="HFALPHA">      0.00000000</i>
   <i name="MCALPHA">      0.00000000</i>
   <i name="ALDAX">      1.00000000</i>
   <i name="AGGAX">      1.00000000</i>
   <i name="ALDAC">      1.00000000</i>
   <i name="AGGAC">      1.00000000</i>
   <i type="int" name="NKREDX">     1</i>
   <i type="int" name="NKREDY">     1</i>
   <i type="int" name="NKREDZ">     1</i>
   <i type="logical" name="SHIFTRED"> F  </i>
   <i type="logical" name="ODDONLY"> F  </i>
   <i type="logical" name="EVENONLY"> F  </i>
   <i type="int" name="LMAXFOCK">     0</i>
   <i type="int" name="NMAXFOCKAE">     0</i>
   <i type="logical" name="LFOCKAEDFT"> F  </i>
   <i name="HFSCREEN">      0.00000000</i>
   <i name="HFSCREENC">      0.00000000</i>
   <i type="int" name="NBANDSGWLOW">     0</i>
  </separator>
  <separator name="vdW DFT" >
   <i type="logical" name="LUSE_VDW"> F  </i>
   <i name="Zab_VDW">     -0.84910000</i>
   <i name="PARAM1">      0.12340000</i>
   <i name="PARAM2">      1.00000000</i>
   <i name="PARAM3">      0.00000000</i>
  </separator>
  <separator name="model GW" >
   <i type="int" name="MODEL_GW">     0</i>
   <i name="MODEL_EPS0">      6.43617103</i>
   <i name="MODEL_ALPHA">      1.00000000</i>
  </separator>
  <separator name="linear response parameters" >
   <i type="logical" name="LEPSILON"> F  </i>
   <i type="logical" name="LRPA"> F  </i>
   <i type="logical" name="LNABLA"> F  </i>
   <i type="logical" name="LVEL"> F  </i>
   <i name="CSHIFT">      0.10000000</i>
   <i name="OMEGAMAX">     -1.00000000</i>
   <i name="DEG_THRESHOLD">      0.00200000</i>
   <i name="RTIME">     -0.10000000</i>
   <i name="WPLASMAI">      0.00000000</i>
   <v name="DFIELD">      0.00000000      0.00000000      0.00000000</v>
   <v name="WPLASMA">      0.00000000      0.00000000      0.00000000      0.00000000      0.00000000      0.00000000      0.00000000      0.00000000      0.00000000</v>
  </separator>
  <separator name="orbital magnetization" >
   <i type="logical" name="NUCIND"> F  </i>
   <v name="MAGPOS">      0.00000000      0.00000000      0.00000000</v>
   <i type="logical" name="LNICSALL"> T  </i>
   <i type="logical" name="ORBITALMAG"> F  </i>
   <i type="logical" name="LMAGBLOCH"> F  </i>
   <i type="logical" name="LCHIMAG"> F  </i>
   <i type="logical" name="LGAUGE"> T  </i>
   <i type="int" name="MAGATOM">     0</i>
   <v name="MAGDIPOL">      0.00000000      0.00000000      0.00000000</v>
   <v name="AVECCONST">      0.00000000      0.00000000      0.00000000</v>
  </separator>
  <separator name="response functions" >
   <i type="logical" name="LFINITE_TEMPERATURE"> F  </i>
   <i type="logical" name="LADDER"> F  </i>
   <i type="logical" name="LRPAFORCE"> F  </i>
   <i type="logical" name="LFXC"> F  </i>
   <i type="logical" name="LHARTREE"> T  </i>
   <i type="int" name="IBSE">     0</i>
   <v type="int" name="KPOINT">    -1     0     0     0</v>
   <i type="logical" name="LTCTC"> F  </i>
   <i type="logical" name="LTCTE"> F  </i>
   <i type="logical" name="LTETE"> F  </i>
   <i type="logical" name="LTRIPLET"> F  </i>
   <i type="logical" name="LFXCEPS"> F  </i>
   <i type="logical" name="LFXHEG"> F  </i>
   <i type="int" name="NATURALO">     2</i>
   <i type="logical" name="LHOLEGF"> F  </i>
   <i type="logical" name="L2ORDER"> F  </i>
   <i type="logical" name="LDMP1"> F  </i>
   <i type="logical" name="LMP2LT"> F  </i>
   <i type="logical" name="LSMP2LT"> F  </i>
   <i type="logical" name="LGWLF"> F  </i>
   <i name="ENCUTGW">     -2.00000000</i>
   <i name="ENCUTGWSOFT">     -2.00000000</i>
   <i name="ENCUTLF">     -1.00000000</i>
   <i type="logical" name="LESF_SPLINES"> F  </i>
   <i type="int" name="LMAXMP2">    -1</i>
   <i name="SCISSOR">      0.00000000</i>
   <i type="int" name="NOMEGA">     0</i>
   <i type="int" name="NOMEGAR">     0</i>
   <i type="int" name="NBANDSGW">    -1</i>
   <i type="int" name="NBANDSO">    -1</i>
   <i type="int" name="NBANDSV">    -1</i>
   <i type="int" name="NELMGW">     1</i>
   <i type="int" name="NELMHF">     1</i>
   <i type="int" name="DIM">     3</i>
   <i type="int" name="IESPILON">     4</i>
   <i type="int" name="ANTIRES">     0</i>
   <i name="OMEGAMAX">    -30.00000000</i>
   <i name="OMEGAMIN">    -30.00000000</i>
   <i name="OMEGATL">   -200.00000000</i>
   <i type="int" name="OMEGAGRID">     0</i>
   <i name="CSHIFT">     -0.10000000</i>
   <i type="logical" name="LSELFENERGY"> F  </i>
   <i type="logical" name="LSPECTRAL"> F  </i>
   <i type="logical" name="LSPECTRALGW"> F  </i>
   <i type="logical" name="LSINGLES"> F  </i>
   <i type="logical" name="LFERMIGW"> F  </i>
   <i type="logical" name="ODDONLYGW"> F  </i>
   <i type="logical" name="EVENONLYGW"> F  </i>
   <i type="int" name="NKREDLFX">     1</i>
   <i type="int" name="NKREDLFY">     1</i>
   <i type="int" name="NKREDLFZ">     1</i>
   <i type="int" name="MAXMEM">  2800</i>
   <i type="int" name="TELESCOPE">     0</i>
   <i type="int" name="NTAUPAR">    -1</i>
   <i type="int" name="NOMEGAPAR">    -1</i>
   <i name="DAMP_NEWTON">      0.80000001</i>
   <i name="LAMBDA">      1.00000000</i>
  </separator>
  <separator name="External order field" >
   <i name="OFIELD_KAPPA">      0.00000000</i>
   <v name="OFIELD_K">      0.00000000      0.00000000      0.00000000</v>
   <i name="OFIELD_Q6_NEAR">      0.00000000</i>
   <i name="OFIELD_Q6_FAR">      0.00000000</i>
   <i name="OFIELD_A">      0.00000000</i>
  </separator>
  <separator name="optional k-points parameters" >
   <i type="int" name="KPOINTS_OPT_MODE">     1</i>
   <i type="logical" name="LKPOINTS_OPT"> F  </i>
  </separator>
 </parameters>
 <atominfo>
  <atoms>      28 </atoms>
  <types>       4 </types>
  <array name="atoms" >
   <dimension dim="1">ion</dimension>
   <field type="string">element</field>
   <field type="int">atomtype</field>
   <set>
    <rc><c>P </c><c>   1</c></rc>
    <rc><c>P </c><c>   1</c></rc>
    <rc><c>P </c><c>   1</c></rc>
    <rc><c>P </c><c>   1</c></rc>
    <rc><c>Li</c><c>   2</c></rc>
    <rc><c>Li</c><c>   2</c></rc>
    <rc><c>Li</c><c>   2</c></rc>
    <rc><c>Li</c><c>   2</c></rc>
    <rc><c>O </c><c>   3</c></rc>
    <rc><c>O </c><c>   3</c></rc>
    <rc><c>O </c><c>   3</c></rc>
    <rc><c>O </c><c>   3</c></rc>
    <rc><c>O </c><c>   3</c></rc>
    <rc><c>O </c><c>   3</c></rc>
    <rc><c>O </c><c>   3</c></rc>
    <rc><c>O </c><c>   3</c></rc>
    <rc><c>O </c><c>   3</c></rc>
    <rc><c>O </c><c>   3</c></rc>
    <rc><c>O </c><c>   3</c></rc>
    <rc><c>O </c><c>   3</c></rc>
    <rc><c>O </c><c>   3</c></rc>
    <rc><c>O </c><c>   3</c></rc>
    <rc><c>O </c><c>   3</c></rc>
    <rc><c>O </c><c>   3</c></rc>
    <rc><c>Fe</c><c>   4</c></rc>
    <rc><c>Fe</c><c>   4</c></rc>
    <rc><c>Fe</c><c>   4</c></rc>
    <rc><c>Fe</c><c>   4</c></rc>
   </set>
  </array>
  <array name="atomtypes" >
   <dimension dim="1">type</dimension>
   <field type="int">atomspertype</field>
   <field type="string">element</field>
   <field>mass</field>
   <field>valence</field>
   <field type="string">pseudopotential</field>
   <set>
    <rc><c>   4</c><c>P </c><c>     30.97400000</c><c>      5.00000000</c><c>  PAW_PBE P 17Jan2003                   </c></rc>
    <rc><c>   4</c><c>Li</c><c>      7.01000000</c><c>      3.00000000</c><c> PAW_PBE Li_sv 23Jan2001                </c></rc>
    <rc><c>  16</c><c>O </c><c>     16.00000000</c><c>      6.00000000</c><c> PAW_PBE O 08Apr2002                    </c></rc>
    <rc><c>   4</c><c>Fe</c><c>     55.84700000</c><c>      8.00000000</c><c> PAW_PBE Fe 06Sep2000                   </c></rc>
   </set>
  </array>
 </atominfo>
 <structure name="initialpos" >
  <crystal>
   <varray name="basis" >
    <v>      10.41910241       0.00000000       0.00000000 </v>
    <v>       0.00000000       6.06994347      -0.00000005 </v>
    <v>       0.00000000      -0.00000178       4.74918846 </v>
   </varray>
   <i name="volume">    300.35464797 </i>
   <varray name="rec_basis" >
    <v>       0.09597756       0.00000000       0.00000000 </v>
    <v>       0.00000000       0.16474618       0.00000006 </v>
    <v>       0.00000000       0.00000000       0.21056229 </v>
   </varray>
  </crystal>
  <varray name="positions" >
   <v>       0.09399426       0.25000000       0.41810991 </v>
   <v>       0.40600574       0.75000000       0.91811091 </v>
   <v>       0.59399426       0.25000000       0.08188809 </v>
   <v>       0.90600574       0.75000000       0.58188909 </v>
   <v>       0.00000000       0.00000000       0.00000000 </v>
   <v>       0.50000000       0.50000000       0.50000000 </v>
   <v>       0.50000000       0.00000000       0.50000000 </v>
   <v>       0.00000000       0.50000000       0.00000000 </v>
   <v>       0.09604145       0.25000000       0.74165917 </v>
   <v>       0.83476027       0.54656004       0.71474048 </v>
   <v>       0.83476027       0.95344096       0.71474048 </v>
   <v>       0.90395955       0.75000000       0.25834183 </v>
   <v>       0.04372218       0.75000000       0.70783089 </v>
   <v>       0.40395855       0.75000000       0.24165817 </v>
   <v>       0.16523973       0.04656004       0.28526052 </v>
   <v>       0.66523973       0.45343996       0.21473948 </v>
   <v>       0.33476027       0.54656004       0.78526052 </v>
   <v>       0.33476027       0.95344096       0.78526052 </v>
   <v>       0.95627782       0.25000000       0.29217011 </v>
   <v>       0.45627782       0.25000000       0.20782989 </v>
   <v>       0.54372218       0.75000000       0.79217111 </v>
   <v>       0.59604145       0.25000000       0.75834283 </v>
   <v>       0.66523973       0.04656004       0.21473948 </v>
   <v>       0.16523973       0.45343996       0.28526052 </v>
   <v>       0.78094697       0.25000000       0.52535704 </v>
   <v>       0.71905303       0.75000000       0.02535904 </v>
   <v>       0.28094697       0.25000000       0.97464196 </v>
   <v>       0.21905303       0.75000000       0.47464196 </v>
  </varray>
  <varray name="velocities" >
   <v>       0.00000000       0.00000000       0.00000000 </v>
   <v>       0.00000000       0.00000000       0.00000000 </v>
   <v>       0.00000000       0.00000000       0.00000000 </v>
   <v>       0.00000000       0.00000000       0.00000000 </v>
   <v>       0.00000000       0.00000000       0.00000000 </v>
   <v>       0.00000000       0.00000000       0.00000000 </v>
   <v>       0.00000000       0.00000000       0.00000000 </v>
   <v>       0.00000000       0.00000000       0.00000000 </v>
   <v>       0.00000000       0.00000000       0.00000000 </v>
   <v>       0.00000000       0.00000000       0.00000000 </v>
   <v>       0.00000000       0.00000000       0.00000000 </v>
   <v>       0.00000000       0.00000000       0.00000000 </v>
   <v>       0.00000000       0.00000000       0.00000000 </v>
   <v>       0.00000000       0.00000000       0.00000000 </v>
   <v>       0.00000000       0.00000000       0.00000000 </v>
   <v>       0.00000000       0.00000000       0.00000000 </v>
   <v>       0.00000000       0.00000000       0.00000000 </v>
   <v>       0.00000000       0.00000000       0.00000000 </v>
   <v>       0.00000000       0.00000000       0.00000000 </v>
   <v>       0.00000000       0.00000000       0.00000000 </v>
   <v>       0.00000000       0.00000000       0.00000000 </v>
   <v>       0.00000000       0.00000000       0.00000000 </v>
   <v>       0.00000000       0.00000000       0.00000000 </v>
   <v>       0.00000000       0.00000000       0.00000000 </v>
   <v>       0.00000000       0.00000000       0.00000000 </v>
   <v>       0.00000000       0.00000000       0.00000000 </v>
   <v>       0.00000000       0.00000000       0.00000000 </v>
   <v>       0.00000000       0.00000000       0.00000000 </v>
  </varray>
 </structure>
 <calculation>
  <scstep>
   <time name="dav">    0.11    0.11</time>
   <time name="total">    0.13    0.13</time>
   <energy>
    <i name="alphaZ">    482.99505141 </i>
    <i name="ewald">  -7966.30730475 </i>
    <i name="hartreedc">  -2799.44695138 </i>
    <i name="XCdc">    521.29503891 </i>
    <i name="pawpsdc">   6272.09240760 </i>
    <i name="pawaedc">  -6394.57164539 </i>
    <i name="eentropy">     -0.00330390 </i>
    <i name="bandstr">     69.19574412 </i>
    <i name="atom">  10809.33661609 </i>
    <i name="e_fr_energy">    994.58565270 </i>
    <i name="e_wo_entrp">    994.58895661 </i>
    <i name="e_0_energy">    994.58730466 </i>
   </energy>
  </scstep>
  <scstep>
   <time name="dav">    0.18    0.18</time>
   <time name="total">    0.18    0.18</time>
   <energy>
    <i name="e_fr_energy">   -158.53116086 </i>
    <i name="e_wo_entrp">   -158.43419679 </i>
    <i name="e_0_energy">   -158.48267882 </i>
   </energy>
  </scstep>
  <scstep>
   <time name="dav">    0.16    0.16</time>
   <time name="total">    0.16    0.16</time>
   <energy>
    <i name="e_fr_energy">   -217.47366694 </i>
    <i name="e_wo_entrp">   -217.31430084 </i>
    <i name="e_0_energy">   -217.39398389 </i>
   </energy>
  </scstep>
  <scstep>
   <time name="dav">    0.11    0.11</time>
   <time name="total">    0.11    0.11</time>
   <energy>
    <i name="e_fr_energy">   -218.19567645 </i>
    <i name="e_wo_entrp">   -218.03627555 </i>
    <i name="e_0_energy">   -218.11597600 </i>
   </energy>
  </scstep>
  <scstep>
   <time name="dav">    0.15    0.15</time>
   <time name="total">    0.16    0.16</time>
   <energy>
    <i name="e_fr_energy">   -218.21722419 </i>
    <i name="e_wo_entrp">   -218.05782293 </i>
    <i name="e_0_energy">   -218.13752356 </i>
   </energy>
  </scstep>
  <scstep>
   <time name="dav">    0.14    0.14</time>
   <time name="total">    0.16    0.16</time>
   <energy>
    <i name="e_fr_energy">   -213.77290188 </i>
    <i name="e_wo_entrp">   -213.76980254 </i>
    <i name="e_0_energy">   -213.77135221 </i>
   </energy>
  </scstep>
  <scstep>
   <time name="dav">    0.11    0.11</time>
   <time name="total">    0.13    0.13</time>
   <energy>
    <i name="e_fr_energy">   -192.05166529 </i>
    <i name="e_wo_entrp">   -192.05146465 </i>
    <i name="e_0_energy">   -192.05156497 </i>
   </energy>
  </scstep>
  <scstep>
   <time name="dav">    0.11    0.11</time>
   <time name="total">    0.13    0.13</time>
   <energy>
    <i name="e_fr_energy">   -189.94454103 </i>
    <i name="e_wo_entrp">   -189.89624784 </i>
    <i name="e_0_energy">   -189.92039443 </i>
   </energy>
  </scstep>
  <scstep>
   <time name="dav">    0.18    0.18</time>
   <time name="total">    0.20    0.20</time>
   <energy>
    <i name="e_fr_energy">   -188.97727715 </i>
    <i name="e_wo_entrp">   -188.95541680 </i>
    <i name="e_0_energy">   -188.96634697 </i>
   </energy>
  </scstep>
  <scstep>
   <time name="dav">    0.18    0.18</time>
   <time name="total">    0.19    0.20</time>
   <energy>
    <i name="e_fr_energy">   -189.25886065 </i>
    <i name="e_wo_entrp">   -189.15140994 </i>
    <i name="e_0_energy">   -189.20513529 </i>
   </energy>
  </scstep>
  <scstep>
   <time name="dav">    0.19    0.19</time>
   <time name="total">    0.21    0.21</time>
   <energy>
    <i name="e_fr_energy">   -189.10111284 </i>
    <i name="e_wo_entrp">   -189.09215518 </i>
    <i name="e_0_energy">   -189.09663401 </i>
   </energy>
  </scstep>
  <scstep>
   <time name="dav">    0.18    0.18</time>
   <time name="total">    0.20    0.20</time>
   <energy>
    <i name="e_fr_energy">   -189.12210529 </i>
    <i name="e_wo_entrp">   -189.07950616 </i>
    <i name="e_0_energy">   -189.10080572 </i>
   </energy>
  </scstep>
  <scstep>
   <time name="dav">    0.18    0.18</time>
   <time name="total">    0.19    0.20</time>
   <energy>
    <i name="e_fr_energy">   -189.06459455 </i>
    <i name="e_wo_entrp">   -189.05276851 </i>
    <i name="e_0_energy">   -189.05868153 </i>
   </energy>
  </scstep>
  <scstep>
   <time name="dav">    0.15    0.15</time>
   <time name="total">    0.17    0.17</time>
   <energy>
    <i name="e_fr_energy">   -189.04096797 </i>
    <i name="e_wo_entrp">   -189.02232089 </i>
    <i name="e_0_energy">   -189.03164443 </i>
   </energy>
  </scstep>
  <scstep>
   <time name="dav">    0.18    0.18</time>
   <time name="total">    0.20    0.20</time>
   <energy>
    <i name="e_fr_energy">   -189.03006103 </i>
    <i name="e_wo_entrp">   -189.02136065 </i>
    <i name="e_0_energy">   -189.02571084 </i>
   </energy>
  </scstep>
  <scstep>
   <time name="dav">    0.18    0.18</time>
   <time name="total">    0.19    0.20</time>
   <energy>
    <i name="e_fr_energy">   -189.02855695 </i>
    <i name="e_wo_entrp">   -189.02167166 </i>
    <i name="e_0_energy">   -189.02511431 </i>
   </energy>
  </scstep>
  <scstep>
   <time name="dav">    0.18    0.18</time>
   <time name="total">    0.19    0.20</time>
   <energy>
    <i name="e_fr_energy">   -189.02940503 </i>
    <i name="e_wo_entrp">   -189.02292122 </i>
    <i name="e_0_energy">   -189.02616312 </i>
   </energy>
  </scstep>
  <scstep>
   <time name="dav">    0.15    0.15</time>
   <time name="total">    0.17    0.17</time>
   <energy>
    <i name="e_fr_energy">   -189.02996589 </i>
    <i name="e_wo_entrp">   -189.02386770 </i>
    <i name="e_0_energy">   -189.02691680 </i>
   </energy>
  </scstep>
  <scstep>
   <time name="dav">    0.07    0.07</time>
   <time name="total">    0.09    0.09</time>
   <energy>
    <i name="e_fr_energy">   -189.03014203 </i>
    <i name="e_wo_entrp">   -189.02430398 </i>
    <i name="e_0_energy">   -189.02722301 </i>
   </energy>
  </scstep>
  <scstep>
   <time name="dav">    0.13    0.13</time>
   <time name="total">    0.15    0.15</time>
   <energy>
    <i name="alphaZ">    482.99505141 </i>
    <i name="ewald">  -7966.30730475 </i>
    <i name="hartreedc">  -2984.02165189 </i>
    <i name="XCdc">    537.65821143 </i>
    <i name="pawpsdc">   7299.94124536 </i>
    <i name="pawaedc">  -7426.63370872 </i>
    <i name="eentropy">     -0.00572808 </i>
    <i name="bandstr">   -941.99290593 </i>
    <i name="atom">  10809.33661609 </i>
    <i name="e_fr_energy">   -189.03017508 </i>
    <i name="e_wo_entrp">   -189.02444700 </i>
    <i name="e_0_energy">   -189.02731104 </i>
   </energy>
  </scstep>
  <structure>
   <crystal>
    <varray name="basis" >
     <v>      10.41910241       0.00000000       0.00000000 </v>
     <v>       0.00000000       6.06994347      -0.00000005 </v>
     <v>       0.00000000      -0.00000178       4.74918846 </v>
    </varray>
    <i name="volume">    300.35464797 </i>
    <varray name="rec_basis" >
     <v>       0.09597756       0.00000000       0.00000000 </v>
     <v>       0.00000000       0.16474618       0.00000006 </v>
     <v>       0.00000000       0.00000000       0.21056229 </v>
    </varray>
   </crystal>
   <varray name="positions" >
    <v>       0.09399426       0.25000000       0.41810991 </v>
    <v>       0.40600574       0.75000000       0.91811091 </v>
    <v>       0.59399426       0.25000000       0.08188809 </v>
    <v>       0.90600574       0.75000000       0.58188909 </v>
    <v>       0.00000000       0.00000000       0.00000000 </v>
    <v>       0.50000000       0.50000000       0.50000000 </v>
    <v>       0.50000000       0.00000000       0.50000000 </v>
    <v>       0.00000000       0.50000000       0.00000000 </v>
    <v>       0.09604145       0.25000000       0.74165917 </v>
    <v>       0.83476027       0.54656004       0.71474048 </v>
    <v>       0.83476027       0.95344096       0.71474048 </v>
    <v>       0.90395955       0.75000000       0.25834183 </v>
    <v>       0.04372218       0.75000000       0.70783089 </v>
    <v>       0.40395855       0.75000000       0.24165817 </v>
    <v>       0.16523973       0.04656004       0.28526052 </v>
    <v>       0.66523973       0.45343996       0.21473948 </v>
    <v>       0.33476027       0.54656004       0.78526052 </v>
    <v>       0.33476027       0.95344096       0.78526052 </v>
    <v>       0.95627782       0.25000000       0.29217011 </v>
    <v>       0.45627782       0.25000000       0.20782989 </v>
    <v>       0.54372218       0.75000000       0.79217111 </v>
    <v>       0.59604145       0.25000000       0.75834283 </v>
    <v>       0.66523973       0.04656004       0.21473948 </v>
    <v>       0.16523973       0.45343996       0.28526052 </v>
    <v>       0.78094697       0.25000000       0.52535704 </v>
    <v>       0.71905303       0.75000000       0.02535904 </v>
    <v>       0.28094697       0.25000000       0.97464196 </v>
    <v>       0.21905303       0.75000000       0.47464196 </v>
   </varray>
  </structure>
  <varray name="forces" >
   <v>       0.39997201       0.00000157       0.50635006 </v>
   <v>      -0.39961159       0.00010756       0.50507900 </v>
   <v>       0.39942104      -0.00000239      -0.50621205 </v>
   <v>      -0.40055973       0.00010889      -0.50507760 </v>
   <v>      -0.00003061      -0.00015728      -0.00008794 </v>
   <v>      -0.00004075       0.00016349       0.00008791 </v>
   <v>      -0.00004191      -0.00016057       0.00008914 </v>
   <v>      -0.00002841       0.00015836      -0.00008620 </v>
   <v>       0.51586378       0.00001377       0.00745235 </v>
   <v>      -0.48043200      -0.86664270       0.52780576 </v>
   <v>      -0.48036892       0.86652075       0.52786836 </v>
   <v>      -0.51606749      -0.00000217      -0.00798752 </v>
   <v>       0.64761582      -0.00000201      -0.49029288 </v>
   <v>      -0.51610017       0.00001304       0.00867400 </v>
   <v>       0.48048577      -0.86720073      -0.52774974 </v>
   <v>       0.48118857       0.86777507       0.52742064 </v>
   <v>      -0.48066212      -0.86655647      -0.52799135 </v>
   <v>      -0.48058558       0.86642432      -0.52783569 </v>
   <v>      -0.64798034       0.00000488       0.49056194 </v>
   <v>      -0.64692117      -0.00000405      -0.49033640 </v>
   <v>       0.64704368       0.00000798       0.49018168 </v>
   <v>       0.51504568      -0.00001121      -0.00871810 </v>
   <v>       0.48118499      -0.86776644       0.52732528 </v>
   <v>       0.48047530       0.86718291      -0.52763905 </v>
   <v>      -0.50092267       0.00000003      -1.04496657 </v>
   <v>       0.50036168       0.00001871      -1.04206117 </v>
   <v>      -0.50088413       0.00000519       1.04464436 </v>
   <v>       0.50126415       0.00001532       1.04313282 </v>
  </varray>
  <energy>
   <i name="e_fr_energy">   -189.03017508 </i>
   <i name="e_wo_entrp">   -189.02444700 </i>
   <i name="e_0_energy">   -189.02731104 </i>
   <i name="kinetic">      0.00030504 </i>
   <i name="lattice kinetic">      0.00000000 </i>
   <i name="nosepot">      0.00000000 </i>
   <i name="nosekinetic">      0.00000000 </i>
   <i name="total">   -189.02987004 </i>
  </energy>
  <time name="totalsc">    3.38    3.41</time>
 </calculation>
 <calculation>
  <scstep>
   <time name="dav">    0.09    0.09</time>
   <time name="total">    0.11    0.11</time>
   <energy>
    <i name="alphaZ">    482.99505141 </i>
    <i name="ewald">  -7966.69247578 </i>
    <i name="hartreedc">  -2983.79434594 </i>
    <i name="XCdc">    537.65382677 </i>
    <i name="pawpsdc">   7299.93000134 </i>
    <i name="pawaedc">  -7426.62410153 </i>
    <i name="eentropy">     -0.00569417 </i>
    <i name="bandstr">   -941.83391191 </i>
    <i name="atom">  10809.33661609 </i>
    <i name="e_fr_energy">   -189.03503373 </i>
    <i name="e_wo_entrp">   -189.02933956 </i>
    <i name="e_0_energy">   -189.03218665 </i>
   </energy>
  </scstep>
  <scstep>
   <time name="dav">    0.15    0.15</time>
   <time name="total">    0.17    0.17</time>
   <energy>
    <i name="alphaZ">    482.99505141 </i>
    <i name="ewald">  -7966.69247578 </i>
    <i name="hartreedc">  -2983.72525263 </i>
    <i name="XCdc">    537.64952998 </i>
    <i name="pawpsdc">   7299.74570472 </i>
    <i name="pawaedc">  -7426.44330109 </i>
    <i name="eentropy">     -0.00567330 </i>
    <i name="bandstr">   -941.89526293 </i>
    <i name="atom">  10809.33661609 </i>
    <i name="e_fr_energy">   -189.03506352 </i>
    <i name="e_wo_entrp">   -189.02939022 </i>
    <i name="e_0_energy">   -189.03222687 </i>
   </energy>
  </scstep>
  <structure>
   <crystal>
    <varray name="basis" >
     <v>      10.41910241       0.00000000       0.00000000 </v>
     <v>       0.00000000       6.06994347      -0.00000005 </v>
     <v>       0.00000000      -0.00000178       4.74918846 </v>
    </varray>
    <i name="volume">    300.35464797 </i>
    <varray name="rec_basis" >
     <v>       0.09597756       0.00000000       0.00000000 </v>
     <v>       0.00000000       0.16474618       0.00000006 </v>
     <v>       0.00000000       0.00000000       0.21056229 </v>
    </varray>
   </crystal>
   <varray name="positions" >
    <v>       0.09400024       0.25000000       0.41812651 </v>
    <v>       0.40599976       0.75000000       0.91812747 </v>
    <v>       0.59400024       0.25000000       0.08187149 </v>
    <v>       0.90599975       0.75000000       0.58187253 </v>
    <v>       1.00000000       0.99999998       0.99999999 </v>
    <v>       0.50000000       0.50000002       0.50000001 </v>
    <v>       0.50000000       0.99999998       0.50000001 </v>
    <v>       1.00000000       0.50000002       0.99999999 </v>
    <v>       0.09605638       0.25000000       0.74165964 </v>
    <v>       0.83474637       0.54651699       0.71477399 </v>
    <v>       0.83474637       0.95348401       0.71477399 </v>
    <v>       0.90394461       0.75000000       0.25834132 </v>
    <v>       0.04374092       0.75000000       0.70779977 </v>
    <v>       0.40394361       0.75000000       0.24165872 </v>
    <v>       0.16525363       0.04651696       0.28522702 </v>
    <v>       0.66525365       0.45348307       0.21477296 </v>
    <v>       0.33474637       0.54651699       0.78522700 </v>
    <v>       0.33474637       0.95348400       0.78522701 </v>
    <v>       0.95625907       0.25000000       0.29220125 </v>
    <v>       0.45625910       0.25000000       0.20779877 </v>
    <v>       0.54374091       0.75000000       0.79220223 </v>
    <v>       0.59605636       0.25000000       0.75834228 </v>
    <v>       0.66525365       0.04651693       0.21477296 </v>
    <v>       0.16525363       0.45348304       0.28522702 </v>
    <v>       0.78094281       0.25000000       0.52533803 </v>
    <v>       0.71905718       0.75000000       0.02534009 </v>
    <v>       0.28094281       0.25000000       0.97466096 </v>
    <v>       0.21905719       0.75000000       0.47466093 </v>
   </varray>
  </structure>
  <varray name="forces" >
   <v>       0.40032951       0.00000267       0.49553898 </v>
   <v>      -0.40100528       0.00010943       0.49473644 </v>
   <v>       0.40054702      -0.00000533      -0.49451690 </v>
   <v>      -0.40045979       0.00010243      -0.49486308 </v>
   <v>      -0.00008565      -0.00047900       0.00009987 </v>
   <v>      -0.00007213       0.00048560      -0.00012213 </v>
   <v>      -0.00007428      -0.00048424      -0.00012070 </v>
   <v>      -0.00008366       0.00048019       0.00010154 </v>
   <v>       0.51597098       0.00000549       0.01118297 </v>
   <v>      -0.47656958      -0.85878960       0.52420494 </v>
   <v>      -0.47650224       0.85867081       0.52425472 </v>
   <v>      -0.51601353       0.00000075      -0.01104282 </v>
   <v>       0.64027777      -0.00000038      -0.49039080 </v>
   <v>      -0.51630868       0.00000793       0.01121836 </v>
   <v>       0.47628695      -0.85840925      -0.52475976 </v>
   <v>       0.47574722       0.85734109       0.52521918 </v>
   <v>      -0.47592526      -0.85773474      -0.52454123 </v>
   <v>      -0.47585214       0.85760263      -0.52440678 </v>
   <v>      -0.63979990       0.00000379       0.48991294 </v>
   <v>      -0.64024837       0.00000015      -0.49011711 </v>
   <v>       0.64096040       0.00000372       0.49041350 </v>
   <v>       0.51612775      -0.00000249      -0.01188188 </v>
   <v>       0.47573920      -0.85733447       0.52512884 </v>
   <v>       0.47628507       0.85840113      -0.52466790 </v>
   <v>      -0.49935652       0.00000569      -1.04039800 </v>
   <v>       0.50131285       0.00001656      -1.04352221 </v>
   <v>      -0.50075791       0.00000107       1.04246364 </v>
   <v>       0.50010653       0.00001454       1.04104472 </v>
  </varray>
  <energy>
   <i name="e_fr_energy">   -189.03506352 </i>
   <i name="e_wo_entrp">   -189.02939022 </i>
   <i name="e_0_energy">   -189.03222687 </i>
   <i name="kinetic">      0.00490370 </i>
   <i name="lattice kinetic">      0.00000000 </i>
   <i name="nosepot">     -0.01290194 </i>
   <i name="nosekinetic">      0.01288691 </i>
   <i name="total">   -189.03017485 </i>
  </energy>
  <time name="totalsc">    0.36    0.36</time>
 </calculation>
 <calculation>
  <scstep>
   <time name="dav">    0.09    0.09</time>
   <time name="total">    0.10    0.10</time>
   <energy>
    <i name="alphaZ">    482.99505141 </i>
    <i name="ewald">  -7967.84570009 </i>
    <i name="hartreedc">  -2982.81178352 </i>
    <i name="XCdc">    537.61785629 </i>
    <i name="pawpsdc">   7299.13850683 </i>
    <i name="pawaedc">  -7425.84577911 </i>
    <i name="eentropy">     -0.00559394 </i>
    <i name="bandstr">   -941.62853966 </i>
    <i name="atom">  10809.33661609 </i>
    <i name="e_fr_energy">   -189.04936570 </i>
    <i name="e_wo_entrp">   -189.04377177 </i>
    <i name="e_0_energy">   -189.04656873 </i>
   </energy>
  </scstep>
  <scstep>
   <time name="dav">    0.18    0.18</time>
   <time name="total">    0.19    0.20</time>
   <energy>
    <i name="e_fr_energy">   -189.05468218 </i>
    <i name="e_wo_entrp">   -189.04757410 </i>
    <i name="e_0_energy">   -189.05112814 </i>
   </energy>
  </scstep>
  <scstep>
   <time name="dav">    0.15    0.15</time>
   <time name="total">    0.17    0.17</time>
   <energy>
    <i name="e_fr_energy">   -189.04945732 </i>
    <i name="e_wo_entrp">   -189.04391765 </i>
    <i name="e_0_energy">   -189.04668749 </i>
   </energy>
  </scstep>
  <scstep>
   <time name="dav">    0.08    0.09</time>
   <time name="total">    0.10    0.11</time>
   <energy>
    <i name="e_fr_energy">   -189.04949470 </i>
    <i name="e_wo_entrp">   -189.04385906 </i>
    <i name="e_0_energy">   -189.04667688 </i>
   </energy>
  </scstep>
  <scstep>
   <time name="dav">    0.07    0.07</time>
   <time name="total">    0.08    0.08</time>
   <energy>
    <i name="alphaZ">    482.99505141 </i>
    <i name="ewald">  -7967.84570009 </i>
    <i name="hartreedc">  -2982.76293581 </i>
    <i name="XCdc">    537.61486892 </i>
    <i name="pawpsdc">   7298.84223285 </i>
    <i name="pawaedc">  -7425.53765230 </i>
    <i name="eentropy">     -0.00561889 </i>
    <i name="bandstr">   -941.68627988 </i>
    <i name="atom">  10809.33661609 </i>
    <i name="e_fr_energy">   -189.04941771 </i>
    <i name="e_wo_entrp">   -189.04379882 </i>
    <i name="e_0_energy">   -189.04660827 </i>
   </energy>
  </scstep>
  <structure>
   <crystal>
    <varray name="basis" >
     <v>      10.41910241       0.00000000       0.00000000 </v>
     <v>       0.00000000       6.06994347      -0.00000005 </v>
     <v>       0.00000000      -0.00000178       4.74918846 </v>
    </varray>
    <i name="volume">    300.35464797 </i>
    <varray name="rec_basis" >
     <v>       0.09597756       0.00000000       0.00000000 </v>
     <v>       0.00000000       0.16474618       0.00000006 </v>
     <v>       0.00000000       0.00000000       0.21056229 </v>
    </varray>
   </crystal>
   <varray name="positions" >
    <v>       0.09401834       0.25000000       0.41817603 </v>
    <v>       0.40598165       0.75000001       0.91817689 </v>
    <v>       0.59401833       0.25000000       0.08182205 </v>
    <v>       0.90598164       0.75000001       0.58182310 </v>
    <v>       0.99999999       0.99999985       0.00000000 </v>
    <v>       0.49999999       0.50000015       0.49999999 </v>
    <v>       0.49999999       0.99999985       0.49999999 </v>
    <v>       0.99999999       0.50000015       0.00000001 </v>
    <v>       0.09610154       0.25000000       0.74166155 </v>
    <v>       0.83470454       0.54638756       0.71487489 </v>
    <v>       0.83470455       0.95361342       0.71487490 </v>
    <v>       0.90389944       0.75000000       0.25833940 </v>
    <v>       0.04379718       0.75000000       0.70770560 </v>
    <v>       0.40389843       0.75000000       0.24166071 </v>
    <v>       0.16529545       0.04638754       0.28512605 </v>
    <v>       0.66529546       0.45361241       0.21487397 </v>
    <v>       0.33470457       0.54638767       0.78512605 </v>
    <v>       0.33470458       0.95361330       0.78512608 </v>
    <v>       0.95620283       0.25000000       0.29229537 </v>
    <v>       0.45620286       0.25000000       0.20770463 </v>
    <v>       0.54379719       0.75000000       0.79229639 </v>
    <v>       0.59610151       0.25000000       0.75834020 </v>
    <v>       0.66529545       0.04638759       0.21487394 </v>
    <v>       0.16529545       0.45361246       0.28512608 </v>
    <v>       0.78093028       0.25000000       0.52528071 </v>
    <v>       0.71906975       0.75000000       0.02528270 </v>
    <v>       0.28093026       0.25000000       0.97471836 </v>
    <v>       0.21906974       0.75000000       0.47471825 </v>
   </varray>
  </structure>
  <varray name="forces" >
   <v>       0.40469917       0.00000372       0.46171508 </v>
   <v>      -0.40630332       0.00010498       0.46209344 </v>
   <v>       0.40551474      -0.00000563      -0.46072582 </v>
   <v>      -0.40482359       0.00009451      -0.46185352 </v>
   <v>      -0.00006852      -0.00033409       0.00022470 </v>
   <v>      -0.00009753       0.00035119      -0.00024478 </v>
   <v>      -0.00009934      -0.00034989      -0.00024344 </v>
   <v>      -0.00006593       0.00033551       0.00022565 </v>
   <v>       0.51588476       0.00000242       0.01555316 </v>
   <v>      -0.45822293      -0.82631227       0.51293722 </v>
   <v>      -0.45815707       0.82619651       0.51298166 </v>
   <v>      -0.51496581       0.00000346      -0.01619007 </v>
   <v>       0.61217083       0.00000314      -0.49382545 </v>
   <v>      -0.51570016       0.00000231       0.01560474 </v>
   <v>       0.45839048      -0.82618384      -0.51483430 </v>
   <v>       0.45827241       0.82688617       0.51515032 </v>
   <v>      -0.45902140      -0.82766177      -0.51428819 </v>
   <v>      -0.45895330       0.82753207      -0.51416440 </v>
   <v>      -0.61122385       0.00000037       0.49212402 </v>
   <v>      -0.61171395       0.00000355      -0.49355702 </v>
   <v>       0.61269611       0.00000009       0.49439708 </v>
   <v>       0.51665415       0.00000247      -0.01575568 </v>
   <v>       0.45826979      -0.82688178       0.51506593 </v>
   <v>       0.45839113       0.82617871      -0.51474754 </v>
   <v>      -0.50203226      -0.00000096      -1.03756265 </v>
   <v>       0.49896571       0.00001206      -1.04083326 </v>
   <v>      -0.49905034       0.00000348       1.03833663 </v>
   <v>       0.50125398       0.00001420       1.04044955 </v>
  </varray>
  <energy>
   <i name="e_fr_energy">   -189.04941771 </i>
   <i name="e_wo_entrp">   -189.04379882 </i>
   <i name="e_0_energy">   -189.04660827 </i>
   <i name="kinetic">      0.01976448 </i>
   <i name="lattice kinetic">      0.00000000 </i>
   <i name="nosepot">     -0.05148649 </i>
   <i name="nosekinetic">      0.05106422 </i>
   <i name="total">   -189.03007551 </i>
  </energy>
  <time name="totalsc">    0.74    0.75</time>
 </calculation>
 <calculation>
  <scstep>
   <time name="dav">    0.15    0.15</time>
   <time name="total">    0.17    0.17</time>
   <energy>
    <i name="alphaZ">    482.99505141 </i>
    <i name="ewald">  -7969.75167049 </i>
    <i name="hartreedc">  -2980.99078425 </i>
    <i name="XCdc">    537.54597554 </i>
    <i name="pawpsdc">   7296.20497956 </i>
    <i name="pawaedc">  -7422.85766161 </i>
    <i name="eentropy">     -0.00599363 </i>
    <i name="bandstr">   -941.55005250 </i>
    <i name="atom">  10809.33661609 </i>
    <i name="e_fr_energy">   -189.07353987 </i>
    <i name="e_wo_entrp">   -189.06754624 </i>
    <i name="e_0_energy">   -189.07054306 </i>
   </energy>
  </scstep>
  <scstep>
   <time name="dav">    0.14    0.14</time>
   <time name="total">    0.16    0.16</time>
   <energy>
    <i name="e_fr_energy">   -189.21061696 </i>
    <i name="e_wo_entrp">   -189.15982338 </i>
    <i name="e_0_energy">   -189.18522017 </i>
   </energy>
  </scstep>
  <scstep>
   <time name="dav">    0.14    0.14</time>
   <time name="total">    0.16    0.16</time>
   <energy>
    <i name="e_fr_energy">   -189.08282762 </i>
    <i name="e_wo_entrp">   -189.07868601 </i>
    <i name="e_0_energy">   -189.08075682 </i>
   </energy>
  </scstep>
  <scstep>
   <time name="dav">    0.10    0.10</time>
   <time name="total">    0.12    0.12</time>
   <energy>
    <i name="e_fr_energy">   -189.07449980 </i>
    <i name="e_wo_entrp">   -189.06833294 </i>
    <i name="e_0_energy">   -189.07141637 </i>
   </energy>
  </scstep>
  <scstep>
   <time name="dav">    0.16    0.16</time>
   <time name="total">    0.18    0.18</time>
   <energy>
    <i name="e_fr_energy">   -189.07308216 </i>
    <i name="e_wo_entrp">   -189.06738426 </i>
    <i name="e_0_energy">   -189.07023321 </i>
   </energy>
  </scstep>
  <scstep>
   <time name="dav">    0.11    0.11</time>
   <time name="total">    0.13    0.13</time>
   <energy>
    <i name="e_fr_energy">   -189.07267101 </i>
    <i name="e_wo_entrp">   -189.06709211 </i>
    <i name="e_0_energy">   -189.06988156 </i>
   </energy>
  </scstep>
  <scstep>
   <time name="dav">    0.07    0.07</time>
   <time name="total">    0.09    0.09</time>
   <energy>
    <i name="e_fr_energy">   -189.07257527 </i>
    <i name="e_wo_entrp">   -189.06698731 </i>
    <i name="e_0_energy">   -189.06978129 </i>
   </energy>
  </scstep>
  <scstep>
   <time name="dav">    0.07    0.07</time>
   <time name="total">    0.08    0.08</time>
   <energy>
    <i name="alphaZ">    482.99505141 </i>
    <i name="ewald">  -7969.75167049 </i>
    <i name="hartreedc">  -2981.18452125 </i>
    <i name="XCdc">    537.55149391 </i>
    <i name="pawpsdc">   7296.91780913 </i>
    <i name="pawaedc">  -7423.60653755 </i>
    <i name="eentropy">     -0.00558237 </i>
    <i name="bandstr">   -941.32518316 </i>
    <i name="atom">  10809.33661609 </i>
    <i name="e_fr_energy">   -189.07252428 </i>
    <i name="e_wo_entrp">   -189.06694191 </i>
    <i name="e_0_energy">   -189.06973310 </i>
   </energy>
  </scstep>
  <structure>
   <crystal>
    <varray name="basis" >
     <v>      10.41910241       0.00000000       0.00000000 </v>
     <v>       0.00000000       6.06994347      -0.00000005 </v>
     <v>       0.00000000      -0.00000178       4.74918846 </v>
    </varray>
    <i name="volume">    300.35464797 </i>
    <varray name="rec_basis" >
     <v>       0.09597756       0.00000000       0.00000000 </v>
     <v>       0.00000000       0.16474618       0.00000006 </v>
     <v>       0.00000000       0.00000000       0.21056229 </v>
    </varray>
   </crystal>
   <varray name="positions" >
    <v>       0.09404914       0.25000000       0.41825744 </v>
    <v>       0.40595079       0.75000003       0.91825823 </v>
    <v>       0.59404915       0.25000000       0.08174079 </v>
    <v>       0.90595083       0.75000002       0.58174178 </v>
    <v>       0.99999996       0.99999965       0.00000009 </v>
    <v>       0.49999996       0.50000036       0.49999990 </v>
    <v>       0.49999996       0.99999964       0.49999990 </v>
    <v>       0.99999996       0.50000035       0.00000010 </v>
    <v>       0.09617806       0.25000000       0.74166551 </v>
    <v>       0.83463482       0.54617180       0.71504424 </v>
    <v>       0.83463484       0.95382915       0.71504427 </v>
    <v>       0.90382298       0.75000000       0.25833535 </v>
    <v>       0.04389071       0.75000000       0.70754562 </v>
    <v>       0.40382190       0.75000000       0.24166476 </v>
    <v>       0.16536516       0.04617180       0.28495640 </v>
    <v>       0.66536515       0.45382814       0.21504371 </v>
    <v>       0.33463483       0.54617189       0.78495648 </v>
    <v>       0.33463485       0.95382905       0.78495656 </v>
    <v>       0.95610937       0.25000000       0.29245511 </v>
    <v>       0.45610938       0.25000000       0.20754471 </v>
    <v>       0.54389077       0.75000000       0.79245645 </v>
    <v>       0.59617805       0.25000000       0.75833605 </v>
    <v>       0.66536515       0.04617187       0.21504366 </v>
    <v>       0.16536516       0.45382819       0.28495646 </v>
    <v>       0.78090900       0.25000000       0.52518375 </v>
    <v>       0.71909100       0.75000000       0.02518556 </v>
    <v>       0.28090901       0.25000000       0.97481542 </v>
    <v>       0.21909102       0.75000000       0.47481531 </v>
   </varray>
  </structure>
  <varray name="forces" >
   <v>       0.41548645       0.00000185       0.40298536 </v>
   <v>      -0.41732623       0.00009469       0.40316066 </v>
   <v>       0.41440605      -0.00000398      -0.40186004 </v>
   <v>      -0.41393654       0.00008642      -0.40348894 </v>
   <v>      -0.00008189      -0.00014079       0.00024128 </v>
   <v>      -0.00019235       0.00020970      -0.00026625 </v>
   <v>      -0.00019421      -0.00020850      -0.00026495 </v>
   <v>      -0.00008009       0.00014239       0.00024228 </v>
   <v>       0.50996666       0.00000431       0.02386832 </v>
   <v>      -0.42482147      -0.76628941       0.49188459 </v>
   <v>      -0.42476427       0.76618532       0.49194140 </v>
   <v>      -0.50989507       0.00000103      -0.02437857 </v>
   <v>       0.55823444       0.00000124      -0.49676649 </v>
   <v>      -0.50986235       0.00000829       0.02395560 </v>
   <v>       0.42387984      -0.76675984      -0.49294976 </v>
   <v>       0.42480412       0.76685529       0.49360188 </v>
   <v>      -0.42381572      -0.76707226      -0.49218873 </v>
   <v>      -0.42375232       0.76695487      -0.49206362 </v>
   <v>      -0.55881097       0.00000231       0.49502200 </v>
   <v>      -0.55759053       0.00000103      -0.49621863 </v>
   <v>       0.55983652       0.00000213       0.49848306 </v>
   <v>       0.51130682      -0.00000141      -0.02437910 </v>
   <v>       0.42480116      -0.76685224       0.49351534 </v>
   <v>       0.42388249       0.76675455      -0.49286142 </v>
   <v>      -0.50349885      -0.00000012      -1.03666900 </v>
   <v>       0.49914507       0.00001309      -1.04130150 </v>
   <v>      -0.50164000       0.00000089       1.03728450 </v>
   <v>       0.50159638       0.00001027       1.03870087 </v>
  </varray>
  <energy>
   <i name="e_fr_energy">   -189.07252428 </i>
   <i name="e_wo_entrp">   -189.06694191 </i>
   <i name="e_0_energy">   -189.06973310 </i>
   <i name="kinetic">      0.04489234 </i>
   <i name="lattice kinetic">      0.00000000 </i>
   <i name="nosepot">     -0.11538633 </i>
   <i name="nosekinetic">      0.11307244 </i>
   <i name="total">   -189.02994583 </i>
  </energy>
  <time name="totalsc">    1.16    1.17</time>
 </calculation>
 <calculation>
  <scstep>
   <time name="dav">    0.17    0.18</time>
   <time name="total">    0.19    0.20</time>
   <energy>
    <i name="alphaZ">    482.99505141 </i>
    <i name="ewald">  -7972.37671741 </i>
    <i name="hartreedc">  -2979.02275423 </i>
    <i name="XCdc">    537.45151557 </i>
    <i name="pawpsdc">   7293.54035938 </i>
    <i name="pawaedc">  -7420.21211930 </i>
    <i name="eentropy">     -0.00575562 </i>
    <i name="bandstr">   -940.80927490 </i>
    <i name="atom">  10809.33661609 </i>
    <i name="e_fr_energy">   -189.10307902 </i>
    <i name="e_wo_entrp">   -189.09732340 </i>
    <i name="e_0_energy">   -189.10020121 </i>
   </energy>
  </scstep>
  <scstep>
   <time name="dav">    0.18    0.18</time>
   <time name="total">    0.19    0.20</time>
   <energy>
    <i name="e_fr_energy">   -189.11736762 </i>
    <i name="e_wo_entrp">   -189.10807329 </i>
    <i name="e_0_energy">   -189.11272045 </i>
   </energy>
  </scstep>
  <scstep>
   <time name="dav">    0.14    0.14</time>
   <time name="total">    0.16    0.16</time>
   <energy>
    <i name="e_fr_energy">   -189.10357752 </i>
    <i name="e_wo_entrp">   -189.09817395 </i>
    <i name="e_0_energy">   -189.10087573 </i>
   </energy>
  </scstep>
  <scstep>
   <time name="dav">    0.08    0.08</time>
   <time name="total">    0.10    0.10</time>
   <energy>
    <i name="e_fr_energy">   -189.10329273 </i>
    <i name="e_wo_entrp">   -189.09763192 </i>
    <i name="e_0_energy">   -189.10046233 </i>
   </energy>
  </scstep>
  <scstep>
   <time name="dav">    0.07    0.07</time>
   <time name="total">    0.09    0.09</time>
   <energy>
    <i name="e_fr_energy">   -189.10317046 </i>
    <i name="e_wo_entrp">   -189.09756652 </i>
    <i name="e_0_energy">   -189.10036849 </i>
   </energy>
  </scstep>
  <scstep>
   <time name="dav">    0.07    0.07</time>
   <time name="total">    0.09    0.09</time>
   <energy>
    <i name="e_fr_energy">   -189.10308901 </i>
    <i name="e_wo_entrp">   -189.09749870 </i>
    <i name="e_0_energy">   -189.10029385 </i>
   </energy>
  </scstep>
  <scstep>
   <time name="dav">    0.07    0.07</time>
   <time name="total">    0.08    0.08</time>
   <energy>
    <i name="alphaZ">    482.99505141 </i>
    <i name="ewald">  -7972.37671741 </i>
    <i name="hartreedc">  -2979.02063749 </i>
    <i name="XCdc">    537.46877152 </i>
    <i name="pawpsdc">   7294.86235392 </i>
    <i name="pawaedc">  -7421.52831052 </i>
    <i name="eentropy">     -0.00553075 </i>
    <i name="bandstr">   -940.83470352 </i>
    <i name="atom">  10809.33661609 </i>
    <i name="e_fr_energy">   -189.10310676 </i>
    <i name="e_wo_entrp">   -189.09757601 </i>
    <i name="e_0_energy">   -189.10034138 </i>
   </energy>
  </scstep>
  <structure>
   <crystal>
    <varray name="basis" >
     <v>      10.41910241       0.00000000       0.00000000 </v>
     <v>       0.00000000       6.06994347      -0.00000005 </v>
     <v>       0.00000000      -0.00000178       4.74918846 </v>
    </varray>
    <i name="volume">    300.35464797 </i>
    <varray name="rec_basis" >
     <v>       0.09597756       0.00000000       0.00000000 </v>
     <v>       0.00000000       0.16474618       0.00000006 </v>
     <v>       0.00000000       0.00000000       0.21056229 </v>
    </varray>
   </crystal>
   <varray name="positions" >
    <v>       0.09409373       0.25000000       0.41836881 </v>
    <v>       0.40590608       0.75000004       0.91836954 </v>
    <v>       0.59409374       0.25000000       0.08162966 </v>
    <v>       0.90590627       0.75000004       0.58163048 </v>
    <v>       0.99999993       0.99999940       0.00000026 </v>
    <v>       0.49999991       0.50000063       0.49999973 </v>
    <v>       0.49999991       0.99999937       0.49999974 </v>
    <v>       0.99999993       0.50000060       0.00000026 </v>
    <v>       0.09628748       0.25000001       0.74167271 </v>
    <v>       0.83453747       0.54587048       0.71528351 </v>
    <v>       0.83453750       0.95413043       0.71528356 </v>
    <v>       0.90371361       0.75000000       0.25832801 </v>
    <v>       0.04402063       0.75000000       0.70731544 </v>
    <v>       0.40371247       0.75000001       0.24167207 </v>
    <v>       0.16546246       0.04587046       0.28471669 </v>
    <v>       0.66546248       0.45412948       0.21528361 </v>
    <v>       0.33453752       0.54587046       0.78471695 </v>
    <v>       0.33453756       0.95413043       0.78471709 </v>
    <v>       0.95597950       0.25000000       0.29268480 </v>
    <v>       0.45597956       0.25000000       0.20731468 </v>
    <v>       0.54402084       0.75000000       0.79268694 </v>
    <v>       0.59628758       0.25000000       0.75832860 </v>
    <v>       0.66546248       0.04587052       0.21528351 </v>
    <v>       0.16546245       0.45412953       0.28471679 </v>
    <v>       0.78087844       0.25000000       0.52504478 </v>
    <v>       0.71912148       0.75000000       0.02504623 </v>
    <v>       0.28087850       0.25000000       0.97495454 </v>
    <v>       0.21912156       0.75000000       0.47495448 </v>
   </varray>
  </structure>
  <varray name="forces" >
   <v>       0.42699478       0.00000376       0.32649468 </v>
   <v>      -0.42778711       0.00008312       0.32577772 </v>
   <v>       0.42620351      -0.00000543      -0.32495400 </v>
   <v>      -0.42505316       0.00007361      -0.32679707 </v>
   <v>      -0.00022852       0.00012854       0.00007262 </v>
   <v>       0.00008554      -0.00013477      -0.00011545 </v>
   <v>       0.00008522       0.00013580      -0.00011441 </v>
   <v>      -0.00022713      -0.00012616       0.00007331 </v>
   <v>       0.50436875       0.00000413       0.03351477 </v>
   <v>      -0.38037275      -0.69123954       0.46445529 </v>
   <v>      -0.38032018       0.69114468       0.46450977 </v>
   <v>      -0.50476251      -0.00000110      -0.03395249 </v>
   <v>       0.48870312       0.00000099      -0.50104363 </v>
   <v>      -0.50493762       0.00000886       0.03411528 </v>
   <v>       0.38006059      -0.69063118      -0.46443363 </v>
   <v>       0.38095068       0.69120004       0.46648173 </v>
   <v>      -0.37903418      -0.69015368      -0.46477234 </v>
   <v>      -0.37898420       0.69005131      -0.46465002 </v>
   <v>      -0.48987794       0.00000327       0.50070125 </v>
   <v>      -0.48873120      -0.00000027      -0.50105029 </v>
   <v>       0.49108748       0.00000308       0.50092372 </v>
   <v>       0.50624776      -0.00000234      -0.03509761 </v>
   <v>       0.38095039      -0.69119875       0.46639596 </v>
   <v>       0.38006208       0.69062671      -0.46434427 </v>
   <v>      -0.50272740       0.00000334      -1.03087972 </v>
   <v>       0.49920340       0.00001597      -1.03404908 </v>
   <v>      -0.50084233      -0.00000141       1.03171307 </v>
   <v>       0.50101438       0.00001479       1.03223476 </v>
  </varray>
  <energy>
   <i name="e_fr_energy">   -189.10310676 </i>
   <i name="e_wo_entrp">   -189.09757601 </i>
   <i name="e_0_energy">   -189.10034138 </i>
   <i name="kinetic">      0.08080264 </i>
   <i name="lattice kinetic">      0.00000000 </i>
   <i name="nosepot">     -0.20398076 </i>
   <i name="nosekinetic">      0.19647466 </i>
   <i name="total">   -189.02981021 </i>
  </energy>
  <time name="totalsc">    0.99    1.00</time>
 </calculation>
 <calculation>
  <scstep>
   <time name="dav">    0.15    0.15</time>
   <time name="total">    0.17    0.17</time>
   <energy>
    <i name="alphaZ">    482.99505141 </i>
    <i name="ewald">  -7975.67937343 </i>
    <i name="hartreedc">  -2976.33492332 </i>
    <i name="XCdc">    537.37557623 </i>
    <i name="pawpsdc">   7293.35381310 </i>
    <i name="pawaedc">  -7419.98807172 </i>
    <i name="eentropy">     -0.00542730 </i>
    <i name="bandstr">   -940.19276215 </i>
    <i name="atom">  10809.33661609 </i>
    <i name="e_fr_energy">   -189.13950107 </i>
    <i name="e_wo_entrp">   -189.13407378 </i>
    <i name="e_0_energy">   -189.13678743 </i>
   </energy>
  </scstep>
  <scstep>
   <time name="dav">    0.15    0.15</time>
   <time name="total">    0.17    0.17</time>
   <energy>
    <i name="e_fr_energy">   -189.14057430 </i>
    <i name="e_wo_entrp">   -189.13482184 </i>
    <i name="e_0_energy">   -189.13769807 </i>
   </energy>
  </scstep>
  <scstep>
   <time name="dav">    0.09    0.09</time>
   <time name="total">    0.11    0.11</time>
   <energy>
    <i name="e_fr_energy">   -189.13955401 </i>
    <i name="e_wo_entrp">   -189.13413018 </i>
    <i name="e_0_energy">   -189.13684209 </i>
   </energy>
  </scstep>
  <scstep>
   <time name="dav">    0.13    0.13</time>
   <time name="total">    0.15    0.15</time>
   <energy>
    <i name="e_fr_energy">   -189.13952653 </i>
    <i name="e_wo_entrp">   -189.13410894 </i>
    <i name="e_0_energy">   -189.13681774 </i>
   </energy>
  </scstep>
  <scstep>
   <time name="dav">    0.09    0.09</time>
   <time name="total">    0.11    0.11</time>
   <energy>
    <i name="e_fr_energy">   -189.13960918 </i>
    <i name="e_wo_entrp">   -189.13418255 </i>
    <i name="e_0_energy">   -189.13689586 </i>
   </energy>
  </scstep>
  <scstep>
   <time name="dav">    0.07    0.07</time>
   <time name="total">    0.09    0.09</time>
   <energy>
    <i name="e_fr_energy">   -189.13949191 </i>
    <i name="e_wo_entrp">   -189.13409877 </i>
    <i name="e_0_energy">   -189.13679534 </i>
   </energy>
  </scstep>
  <scstep>
   <time name="dav">    0.05    0.05</time>
   <time name="total">    0.06    0.06</time>
   <energy>
    <i name="alphaZ">    482.99505141 </i>
    <i name="ewald">  -7975.67937343 </i>
    <i name="hartreedc">  -2976.31231612 </i>
    <i name="XCdc">    537.36519308 </i>
    <i name="pawpsdc">   7292.30715193 </i>
    <i name="pawaedc">  -7418.96316902 </i>
    <i name="eentropy">     -0.00540078 </i>
    <i name="bandstr">   -940.18324428 </i>
    <i name="atom">  10809.33661609 </i>
    <i name="e_fr_energy">   -189.13949111 </i>
    <i name="e_wo_entrp">   -189.13409033 </i>
    <i name="e_0_energy">   -189.13679072 </i>
   </energy>
  </scstep>
  <structure>
   <crystal>
    <varray name="basis" >
     <v>      10.41910241       0.00000000       0.00000000 </v>
     <v>       0.00000000       6.06994347      -0.00000005 </v>
     <v>       0.00000000      -0.00000178       4.74918846 </v>
    </varray>
    <i name="volume">    300.35464797 </i>
    <varray name="rec_basis" >
     <v>       0.09597756       0.00000000       0.00000000 </v>
     <v>       0.00000000       0.16474618       0.00000006 </v>
     <v>       0.00000000       0.00000000       0.21056229 </v>
    </varray>
   </crystal>
   <varray name="positions" >
    <v>       0.09415360       0.25000000       0.41850760 </v>
    <v>       0.40584606       0.75000007       0.91850822 </v>
    <v>       0.59415357       0.25000000       0.08149121 </v>
    <v>       0.90584649       0.75000006       0.58149173 </v>
    <v>       0.99999986       0.99999917       0.00000045 </v>
    <v>       0.49999987       0.50000088       0.49999952 </v>
    <v>       0.49999986       0.99999912       0.49999952 </v>
    <v>       0.99999987       0.50000083       0.00000046 </v>
    <v>       0.09643221       0.25000001       0.74168462 </v>
    <v>       0.83441276       0.54548393       0.71559499 </v>
    <v>       0.83441281       0.95451692       0.71559508 </v>
    <v>       0.90356891       0.75000000       0.25831587 </v>
    <v>       0.04418594       0.75000000       0.70700872 </v>
    <v>       0.40356769       0.75000001       0.24168417 </v>
    <v>       0.16558709       0.04548395       0.28440473 </v>
    <v>       0.66558720       0.45451605       0.21559602 </v>
    <v>       0.33441294       0.54548392       0.78440514 </v>
    <v>       0.33441299       0.95451691       0.78440537 </v>
    <v>       0.95581417       0.25000000       0.29299097 </v>
    <v>       0.45581435       0.25000000       0.20700811 </v>
    <v>       0.54418645       0.75000000       0.79299397 </v>
    <v>       0.59643254       0.25000000       0.75831621 </v>
    <v>       0.66558720       0.04548396       0.21559587 </v>
    <v>       0.16558708       0.45451604       0.28440488 </v>
    <v>       0.78083782       0.25000000       0.52486053 </v>
    <v>       0.71916193       0.75000001       0.02486148 </v>
    <v>       0.28083797       0.25000000       0.97513897 </v>
    <v>       0.21916212       0.75000001       0.47513898 </v>
   </varray>
  </structure>
  <varray name="forces" >
   <v>       0.44003857      -0.00000133       0.23041419 </v>
   <v>      -0.44006310       0.00006283       0.22986749 </v>
   <v>       0.44056524       0.00000058      -0.22997920 </v>
   <v>      -0.44021224       0.00006225      -0.22968654 </v>
   <v>       0.00011325      -0.00004862      -0.00005173 </v>
   <v>       0.00005101       0.00000718       0.00005058 </v>
   <v>       0.00004995      -0.00000579       0.00005125 </v>
   <v>       0.00011355       0.00004976      -0.00005159 </v>
   <v>       0.50416069      -0.00000167       0.04366470 </v>
   <v>      -0.32701879      -0.59745333       0.43328451 </v>
   <v>      -0.32697160       0.59737034       0.43334189 </v>
   <v>      -0.50289873       0.00000537      -0.04454034 </v>
   <v>       0.40277210       0.00000258      -0.50826048 </v>
   <v>      -0.50358986       0.00000152       0.04444251 </v>
   <v>       0.32717519      -0.59760767      -0.43291672 </v>
   <v>       0.32712317       0.59681742       0.43333122 </v>
   <v>      -0.32853049      -0.59787845      -0.43428778 </v>
   <v>      -0.32849018       0.59779460      -0.43418141 </v>
   <v>      -0.40251847      -0.00000015       0.50926922 </v>
   <v>      -0.40431698       0.00000266      -0.50975242 </v>
   <v>       0.40254171      -0.00000008       0.50848846 </v>
   <v>       0.50360588       0.00000424      -0.04414839 </v>
   <v>       0.32712409      -0.59681798       0.43325135 </v>
   <v>       0.32717957       0.59760977      -0.43283319 </v>
   <v>      -0.50087909      -0.00000446      -1.02412039 </v>
   <v>       0.50124550       0.00000886      -1.02384398 </v>
   <v>      -0.49938211       0.00000566       1.02475020 </v>
   <v>       0.50218695       0.00000747       1.02280868 </v>
  </varray>
  <energy>
   <i name="e_fr_energy">   -189.13949111 </i>
   <i name="e_wo_entrp">   -189.13409033 </i>
   <i name="e_0_energy">   -189.13679072 </i>
   <i name="kinetic">      0.12851752 </i>
   <i name="lattice kinetic">      0.00000000 </i>
   <i name="nosepot">     -0.31638233 </i>
   <i name="nosekinetic">      0.29782643 </i>
   <i name="total">   -189.02952949 </i>
  </energy>
  <time name="totalsc">    0.94    0.95</time>
 </calculation>
 <calculation>
  <scstep>
   <time name="dav">    0.18    0.18</time>
   <time name="total">    0.19    0.19</time>
   <energy>
    <i name="alphaZ">    482.99505141 </i>
    <i name="ewald">  -7979.60666985 </i>
    <i name="hartreedc">  -2973.11965306 </i>
    <i name="XCdc">    537.23834543 </i>
    <i name="pawpsdc">   7288.95317133 </i>
    <i name="pawaedc">  -7415.61332524 </i>
    <i name="eentropy">     -0.00528674 </i>
    <i name="bandstr">   -939.35792747 </i>
    <i name="atom">  10809.33661609 </i>
    <i name="e_fr_energy">   -189.17967810 </i>
    <i name="e_wo_entrp">   -189.17439136 </i>
    <i name="e_0_energy">   -189.17703473 </i>
   </energy>
  </scstep>
  <scstep>
   <time name="dav">    0.18    0.18</time>
   <time name="total">    0.20    0.20</time>
   <energy>
    <i name="e_fr_energy">   -189.18119552 </i>
    <i name="e_wo_entrp">   -189.17529038 </i>
    <i name="e_0_energy">   -189.17824295 </i>
   </energy>
  </scstep>
  <scstep>
   <time name="dav">    0.12    0.12</time>
   <time name="total">    0.14    0.14</time>
   <energy>
    <i name="e_fr_energy">   -189.17982110 </i>
    <i name="e_wo_entrp">   -189.17449022 </i>
    <i name="e_0_energy">   -189.17715566 </i>
   </energy>
  </scstep>
  <scstep>
   <time name="dav">    0.14    0.14</time>
   <time name="total">    0.15    0.16</time>
   <energy>
    <i name="e_fr_energy">   -189.17971679 </i>
    <i name="e_wo_entrp">   -189.17442508 </i>
    <i name="e_0_energy">   -189.17707094 </i>
   </energy>
  </scstep>
  <scstep>
   <time name="dav">    0.07    0.07</time>
   <time name="total">    0.09    0.09</time>
   <energy>
    <i name="alphaZ">    482.99505141 </i>
    <i name="ewald">  -7979.60666985 </i>
    <i name="hartreedc">  -2973.13389906 </i>
    <i name="XCdc">    537.23894380 </i>
    <i name="pawpsdc">   7289.01246915 </i>
    <i name="pawaedc">  -7415.65346475 </i>
    <i name="eentropy">     -0.00529992 </i>
    <i name="bandstr">   -939.36346526 </i>
    <i name="atom">  10809.33661609 </i>
    <i name="e_fr_energy">   -189.17971838 </i>
    <i name="e_wo_entrp">   -189.17441846 </i>
    <i name="e_0_energy">   -189.17706842 </i>
   </energy>
  </scstep>
  <structure>
   <crystal>
    <varray name="basis" >
     <v>      10.41910241       0.00000000       0.00000000 </v>
     <v>       0.00000000       6.06994347      -0.00000005 </v>
     <v>       0.00000000      -0.00000178       4.74918846 </v>
    </varray>
    <i name="volume">    300.35464797 </i>
    <varray name="rec_basis" >
     <v>       0.09597756       0.00000000       0.00000000 </v>
     <v>       0.00000000       0.16474618       0.00000006 </v>
     <v>       0.00000000       0.00000000       0.21056229 </v>
    </varray>
   </crystal>
   <varray name="positions" >
    <v>       0.09423069       0.25000000       0.41867045 </v>
    <v>       0.40576881       0.75000010       0.91867091 </v>
    <v>       0.59423064       0.25000000       0.08132877 </v>
    <v>       0.90576949       0.75000009       0.58132899 </v>
    <v>       0.99999981       0.99999891       0.00000064 </v>
    <v>       0.49999983       0.50000115       0.49999931 </v>
    <v>       0.49999982       0.99999885       0.49999932 </v>
    <v>       0.99999981       0.50000109       0.00000065 </v>
    <v>       0.09661584       0.25000001       0.74170297 </v>
    <v>       0.83426093       0.54501263       0.71598220 </v>
    <v>       0.83426100       0.95498816       0.71598233 </v>
    <v>       0.90338539       0.75000000       0.25829718 </v>
    <v>       0.04438535       0.75000000       0.70661678 </v>
    <v>       0.40338405       0.75000001       0.24170283 </v>
    <v>       0.16573884       0.04501267       0.28401708 </v>
    <v>       0.66573905       0.45498731       0.21598421 </v>
    <v>       0.33426115       0.54501257       0.78401747 </v>
    <v>       0.33426122       0.95498819       0.78401780 </v>
    <v>       0.95561474       0.25000001       0.29338246 </v>
    <v>       0.45561493       0.25000000       0.20661612 </v>
    <v>       0.54438617       0.75000001       0.79338627 </v>
    <v>       0.59661638       0.25000000       0.75829729 </v>
    <v>       0.66573904       0.04501270       0.21598399 </v>
    <v>       0.16573884       0.45498732       0.28401731 </v>
    <v>       0.78078616       0.25000000       0.52462664 </v>
    <v>       0.71921342       0.75000001       0.02462707 </v>
    <v>       0.28078644       0.25000000       0.97537308 </v>
    <v>       0.21921374       0.75000001       0.47537309 </v>
   </varray>
  </structure>
  <varray name="forces" >
   <v>       0.45623245      -0.00000102       0.11663949 </v>
   <v>      -0.45629221       0.00004197       0.11517406 </v>
   <v>       0.45464467       0.00000425      -0.11597110 </v>
   <v>      -0.45449542       0.00004553      -0.11592182 </v>
   <v>       0.00017096       0.00069405      -0.00029150 </v>
   <v>       0.00008355      -0.00060359       0.00028950 </v>
   <v>       0.00008334       0.00060472       0.00028988 </v>
   <v>       0.00017109      -0.00069179      -0.00029151 </v>
   <v>       0.49295103       0.00000573       0.05872876 </v>
   <v>      -0.26066217      -0.48081919       0.39205955 </v>
   <v>      -0.26063012       0.48075817       0.39211865 </v>
   <v>      -0.49419639      -0.00000009      -0.05856988 </v>
   <v>       0.29457750       0.00000048      -0.51165301 </v>
   <v>      -0.49325750       0.00000734       0.05940178 </v>
   <v>       0.26081318      -0.48187003      -0.38976929 </v>
   <v>       0.25955314       0.47999716       0.39037478 </v>
   <v>      -0.25880929      -0.47777364      -0.39142040 </v>
   <v>      -0.25877879       0.47771072      -0.39131938 </v>
   <v>      -0.29719986       0.00000343       0.51232948 </v>
   <v>      -0.29591637       0.00000012      -0.51208238 </v>
   <v>       0.29556439       0.00000535       0.51116957 </v>
   <v>       0.49423776      -0.00000314      -0.05999110 </v>
   <v>       0.25955237      -0.47999891       0.39030080 </v>
   <v>       0.26081618       0.48186425      -0.38968700 </v>
   <v>      -0.50038348       0.00000781      -1.01504151 </v>
   <v>       0.50343823       0.00000126      -1.01432955 </v>
   <v>      -0.50342968       0.00001333       1.01762157 </v>
   <v>       0.49885629       0.00001177       1.01133335 </v>
  </varray>
  <energy>
   <i name="e_fr_energy">   -189.17971838 </i>
   <i name="e_wo_entrp">   -189.17441846 </i>
   <i name="e_0_energy">   -189.17706842 </i>
   <i name="kinetic">      0.18930202 </i>
   <i name="lattice kinetic">      0.00000000 </i>
   <i name="nosepot">     -0.45141144 </i>
   <i name="nosekinetic">      0.41261066 </i>
   <i name="total">   -189.02921714 </i>
  </energy>
  <time name="totalsc">    0.86    0.87</time>
 </calculation>
 <calculation>
  <scstep>
   <time name="dav">    0.16    0.16</time>
   <time name="total">    0.18    0.18</time>
   <energy>
    <i name="alphaZ">    482.99505141 </i>
    <i name="ewald">  -7984.08882414 </i>
    <i name="hartreedc">  -2969.55283016 </i>
    <i name="XCdc">    537.09132091 </i>
    <i name="pawpsdc">   7285.14884788 </i>
    <i name="pawaedc">  -7411.77993723 </i>
    <i name="eentropy">     -0.00520630 </i>
    <i name="bandstr">   -938.36628489 </i>
    <i name="atom">  10809.33661609 </i>
    <i name="e_fr_energy">   -189.22124644 </i>
    <i name="e_wo_entrp">   -189.21604014 </i>
    <i name="e_0_energy">   -189.21864329 </i>
   </energy>
  </scstep>
  <scstep>
   <time name="dav">    0.14    0.14</time>
   <time name="total">    0.16    0.17</time>
   <energy>
    <i name="e_fr_energy">   -189.22319813 </i>
    <i name="e_wo_entrp">   -189.21757035 </i>
    <i name="e_0_energy">   -189.22038424 </i>
   </energy>
  </scstep>
  <scstep>
   <time name="dav">    0.09    0.09</time>
   <time name="total">    0.11    0.11</time>
   <energy>
    <i name="e_fr_energy">   -189.22134822 </i>
    <i name="e_wo_entrp">   -189.21616498 </i>
    <i name="e_0_energy">   -189.21875660 </i>
   </energy>
  </scstep>
  <scstep>
   <time name="dav">    0.07    0.07</time>
   <time name="total">    0.09    0.09</time>
   <energy>
    <i name="e_fr_energy">   -189.22134688 </i>
[...]
       <r>   11.2466    0.0000 </r>
       <r>   11.5300    0.0000 </r>
       <r>   11.5534    0.0000 </r>
       <r>   11.6234    0.0000 </r>
       <r>   11.7196    0.0000 </r>
       <r>   12.0650    0.0000 </r>
       <r>   12.7009    0.0000 </r>
       <r>   12.8833    0.0000 </r>
       <r>   12.8859    0.0000 </r>
       <r>   13.0255    0.0000 </r>
       <r>   13.0969    0.0000 </r>
       <r>   13.1063    0.0000 </r>
       <r>   13.1513    0.0000 </r>
      </set>
     </set>
    </set>
   </array>
  </eigenvalues>
  <separator name="orbital magnetization" >
   <v name="MAGDIPOLOUT">      0.00000000      0.00000000      0.00000000</v>
  </separator>
  <dos>
   <i name="efermi">      4.26525249 </i>
   <total>
    <array>
     <dimension dim="1">gridpoints</dimension>
     <dimension dim="2">spin</dimension>
     <field>energy</field>
     <field>total</field>
     <field>integrated</field>
     <set>
      <set comment="spin 1">
       <r>   -44.1896     0.0000     0.0000 </r>
       <r>   -43.9893     0.0000     0.0000 </r>
       <r>   -43.7891     0.0000     0.0000 </r>
       <r>   -43.5889     0.0000     0.0000 </r>
       <r>   -43.3886     0.0000     0.0000 </r>
       <r>   -43.1884     0.0000     0.0000 </r>
       <r>   -42.9881     0.0000     0.0000 </r>
       <r>   -42.7879     0.0000     0.0000 </r>
       <r>   -42.5877     0.0000     0.0000 </r>
       <r>   -42.3874     0.0000     0.0000 </r>
       <r>   -42.1872     0.0000     0.0000 </r>
       <r>   -41.9869     0.0000     0.0000 </r>
       <r>   -41.7867     0.0001     0.0000 </r>
       <r>   -41.5865     1.2619     0.2527 </r>
       <r>   -41.3862    32.0548     6.6713 </r>
       <r>   -41.1860     6.6327     7.9994 </r>
       <r>   -40.9858     0.0029     8.0000 </r>
       <r>   -40.7855     0.0000     8.0000 </r>
       <r>   -40.5853     0.0000     8.0000 </r>
       <r>   -40.3850     0.0000     8.0000 </r>
       <r>   -40.1848     0.0000     8.0000 </r>
       <r>   -39.9846     0.0000     8.0000 </r>
       <r>   -39.7843     0.0000     8.0000 </r>
       <r>   -39.5841     0.0000     8.0000 </r>
       <r>   -39.3839     0.0000     8.0000 </r>
       <r>   -39.1836     0.0000     8.0000 </r>
       <r>   -38.9834     0.0000     8.0000 </r>
       <r>   -38.7831     0.0000     8.0000 </r>
       <r>   -38.5829     0.0000     8.0000 </r>
       <r>   -38.3827     0.0000     8.0000 </r>
       <r>   -38.1824     0.0000     8.0000 </r>
       <r>   -37.9822     0.0000     8.0000 </r>
       <r>   -37.7820     0.0000     8.0000 </r>
       <r>   -37.5817     0.0000     8.0000 </r>
       <r>   -37.3815     0.0000     8.0000 </r>
       <r>   -37.1812     0.0000     8.0000 </r>
       <r>   -36.9810     0.0000     8.0000 </r>
       <r>   -36.7808     0.0000     8.0000 </r>
       <r>   -36.5805     0.0000     8.0000 </r>
       <r>   -36.3803     0.0000     8.0000 </r>
       <r>   -36.1800     0.0000     8.0000 </r>
       <r>   -35.9798     0.0000     8.0000 </r>
       <r>   -35.7796     0.0000     8.0000 </r>
       <r>   -35.5793     0.0000     8.0000 </r>
       <r>   -35.3791     0.0000     8.0000 </r>
       <r>   -35.1789     0.0000     8.0000 </r>
       <r>   -34.9786     0.0000     8.0000 </r>
       <r>   -34.7784     0.0000     8.0000 </r>
       <r>   -34.5781     0.0000     8.0000 </r>
       <r>   -34.3779     0.0000     8.0000 </r>
       <r>   -34.1777     0.0000     8.0000 </r>
       <r>   -33.9774     0.0000     8.0000 </r>
       <r>   -33.7772     0.0000     8.0000 </r>
       <r>   -33.5770     0.0000     8.0000 </r>
       <r>   -33.3767     0.0000     8.0000 </r>
       <r>   -33.1765     0.0000     8.0000 </r>
       <r>   -32.9762     0.0000     8.0000 </r>
       <r>   -32.7760     0.0000     8.0000 </r>
       <r>   -32.5758     0.0000     8.0000 </r>
       <r>   -32.3755     0.0000     8.0000 </r>
       <r>   -32.1753     0.0000     8.0000 </r>
       <r>   -31.9751     0.0000     8.0000 </r>
       <r>   -31.7748     0.0000     8.0000 </r>
       <r>   -31.5746     0.0000     8.0000 </r>
       <r>   -31.3743     0.0000     8.0000 </r>
       <r>   -31.1741     0.0000     8.0000 </r>
       <r>   -30.9739     0.0000     8.0000 </r>
       <r>   -30.7736     0.0000     8.0000 </r>
       <r>   -30.5734     0.0000     8.0000 </r>
       <r>   -30.3732     0.0000     8.0000 </r>
       <r>   -30.1729     0.0000     8.0000 </r>
       <r>   -29.9727     0.0000     8.0000 </r>
       <r>   -29.7724     0.0000     8.0000 </r>
       <r>   -29.5722     0.0000     8.0000 </r>
       <r>   -29.3720     0.0000     8.0000 </r>
       <r>   -29.1717     0.0000     8.0000 </r>
       <r>   -28.9715     0.0000     8.0000 </r>
       <r>   -28.7712     0.0000     8.0000 </r>
       <r>   -28.5710     0.0000     8.0000 </r>
       <r>   -28.3708     0.0000     8.0000 </r>
       <r>   -28.1705     0.0000     8.0000 </r>
       <r>   -27.9703     0.0000     8.0000 </r>
       <r>   -27.7701     0.0000     8.0000 </r>
       <r>   -27.5698     0.0000     8.0000 </r>
       <r>   -27.3696     0.0000     8.0000 </r>
       <r>   -27.1693     0.0000     8.0000 </r>
       <r>   -26.9691     0.0000     8.0000 </r>
       <r>   -26.7689     0.0000     8.0000 </r>
       <r>   -26.5686     0.0000     8.0000 </r>
       <r>   -26.3684     0.0000     8.0000 </r>
       <r>   -26.1682     0.0000     8.0000 </r>
       <r>   -25.9679     0.0000     8.0000 </r>
       <r>   -25.7677     0.0000     8.0000 </r>
       <r>   -25.5674     0.0000     8.0000 </r>
       <r>   -25.3672     0.0000     8.0000 </r>
       <r>   -25.1670     0.0000     8.0000 </r>
       <r>   -24.9667     0.0000     8.0000 </r>
       <r>   -24.7665     0.0000     8.0000 </r>
       <r>   -24.5663     0.0000     8.0000 </r>
       <r>   -24.3660     0.0000     8.0000 </r>
       <r>   -24.1658     0.0000     8.0000 </r>
       <r>   -23.9655     0.0000     8.0000 </r>
       <r>   -23.7653     0.0000     8.0000 </r>
       <r>   -23.5651     0.0000     8.0000 </r>
       <r>   -23.3648     0.0000     8.0000 </r>
       <r>   -23.1646     0.0000     8.0000 </r>
       <r>   -22.9643     0.0000     8.0000 </r>
       <r>   -22.7641     0.0000     8.0000 </r>
       <r>   -22.5639     0.0000     8.0000 </r>
       <r>   -22.3636     0.0000     8.0000 </r>
       <r>   -22.1634     0.0000     8.0000 </r>
       <r>   -21.9632     0.0000     8.0000 </r>
       <r>   -21.7629     0.0000     8.0000 </r>
       <r>   -21.5627     0.0000     8.0000 </r>
       <r>   -21.3624     0.0000     8.0000 </r>
       <r>   -21.1622     0.0000     8.0000 </r>
       <r>   -20.9620     0.0000     8.0000 </r>
       <r>   -20.7617     0.0000     8.0000 </r>
       <r>   -20.5615     0.0000     8.0000 </r>
       <r>   -20.3613     0.0000     8.0000 </r>
       <r>   -20.1610     0.0000     8.0000 </r>
       <r>   -19.9608     0.0000     8.0000 </r>
       <r>   -19.7605     0.0000     8.0000 </r>
       <r>   -19.5603     0.0000     8.0000 </r>
       <r>   -19.3601     0.0000     8.0000 </r>
       <r>   -19.1598     0.0040     8.0008 </r>
       <r>   -18.9596     3.0254     8.6066 </r>
       <r>   -18.7594    13.7833    11.3666 </r>
       <r>   -18.5591    18.5680    15.0846 </r>
       <r>   -18.3589     4.5572    15.9971 </r>
       <r>   -18.1586     0.0145    16.0000 </r>
       <r>   -17.9584     0.0000    16.0000 </r>
       <r>   -17.7582     0.0000    16.0000 </r>
       <r>   -17.5579     0.0000    16.0000 </r>
       <r>   -17.3577     0.0000    16.0000 </r>
       <r>   -17.1575     0.0000    16.0000 </r>
       <r>   -16.9572     0.0000    16.0000 </r>
       <r>   -16.7570     0.0005    16.0001 </r>
       <r>   -16.5567     2.4565    16.4920 </r>
       <r>   -16.3565    45.8715    25.6772 </r>
       <r>   -16.1563    30.1104    31.7064 </r>
       <r>   -15.9560     1.4659    32.0000 </r>
       <r>   -15.7558     0.0484    32.0096 </r>
       <r>   -15.5555     6.5331    33.3178 </r>
       <r>   -15.3553    24.2839    38.1804 </r>
       <r>   -15.1551     9.0570    39.9939 </r>
       <r>   -14.9548     0.0303    40.0000 </r>
       <r>   -14.7546     0.0000    40.0000 </r>
       <r>   -14.5544     0.0000    40.0000 </r>
       <r>   -14.3541     0.0000    40.0000 </r>
       <r>   -14.1539     0.0000    40.0000 </r>
       <r>   -13.9536     0.0000    40.0000 </r>
       <r>   -13.7534     0.0000    40.0000 </r>
       <r>   -13.5532     0.0000    40.0000 </r>
       <r>   -13.3529     0.0000    40.0000 </r>
       <r>   -13.1527     0.0000    40.0000 </r>
       <r>   -12.9525     0.0000    40.0000 </r>
       <r>   -12.7522     0.0000    40.0000 </r>
       <r>   -12.5520     0.0000    40.0000 </r>
       <r>   -12.3517     0.0000    40.0000 </r>
       <r>   -12.1515     0.0000    40.0000 </r>
       <r>   -11.9513     0.0000    40.0000 </r>
       <r>   -11.7510     0.0000    40.0000 </r>
       <r>   -11.5508     0.0000    40.0000 </r>
       <r>   -11.3506     0.0000    40.0000 </r>
       <r>   -11.1503     0.0000    40.0000 </r>
       <r>   -10.9501     0.0000    40.0000 </r>
       <r>   -10.7498     0.0000    40.0000 </r>
       <r>   -10.5496     0.0000    40.0000 </r>
       <r>   -10.3494     0.0000    40.0000 </r>
       <r>   -10.1491     0.0000    40.0000 </r>
       <r>    -9.9489     0.0000    40.0000 </r>
       <r>    -9.7486     0.0000    40.0000 </r>
       <r>    -9.5484     0.0000    40.0000 </r>
       <r>    -9.3482     0.0000    40.0000 </r>
       <r>    -9.1479     0.0000    40.0000 </r>
       <r>    -8.9477     0.0000    40.0000 </r>
       <r>    -8.7475     0.0000    40.0000 </r>
       <r>    -8.5472     0.0000    40.0000 </r>
       <r>    -8.3470     0.0000    40.0000 </r>
       <r>    -8.1467     0.0000    40.0000 </r>
       <r>    -7.9465     0.0000    40.0000 </r>
       <r>    -7.7463     0.0000    40.0000 </r>
       <r>    -7.5460     0.0000    40.0000 </r>
       <r>    -7.3458     0.0000    40.0000 </r>
       <r>    -7.1456     0.0000    40.0000 </r>
       <r>    -6.9453     0.0000    40.0000 </r>
       <r>    -6.7451     0.0000    40.0000 </r>
       <r>    -6.5448     0.0000    40.0000 </r>
       <r>    -6.3446     0.0855    40.0171 </r>
       <r>    -6.1444     6.6618    41.3511 </r>
       <r>    -5.9441    12.2191    43.7978 </r>
       <r>    -5.7439    20.4538    47.8934 </r>
       <r>    -5.5437     0.5323    48.0000 </r>
       <r>    -5.3434     0.0000    48.0000 </r>
       <r>    -5.1432     0.0000    48.0000 </r>
       <r>    -4.9429     0.0050    48.0010 </r>
       <r>    -4.7427     3.2240    48.6466 </r>
       <r>    -4.5425     6.7092    49.9900 </r>
       <r>    -4.3422     9.8184    51.9560 </r>
       <r>    -4.1420    18.5603    55.6725 </r>
       <r>    -3.9418     1.7388    56.0207 </r>
       <r>    -3.7415     6.8896    57.4002 </r>
       <r>    -3.5413     8.1097    59.0241 </r>
       <r>    -3.3410    17.5864    62.5456 </r>
       <r>    -3.1408    18.2607    66.2021 </r>
       <r>    -2.9406    26.6052    71.5294 </r>
       <r>    -2.7403     2.3493    71.9998 </r>
       <r>    -2.5401     0.0008    72.0000 </r>
       <r>    -2.3398     0.0000    72.0000 </r>
       <r>    -2.1396     0.3363    72.0673 </r>
       <r>    -1.9394     8.0731    73.6839 </r>
       <r>    -1.7391     2.7277    74.2301 </r>
       <r>    -1.5389    24.2456    79.0850 </r>
       <r>    -1.3387    24.0377    83.8982 </r>
       <r>    -1.1384    21.5094    88.2052 </r>
       <r>    -0.9382    11.4489    90.4977 </r>
       <r>    -0.7379    42.7741    99.0627 </r>
       <r>    -0.5377    27.2232   104.5138 </r>
       <r>    -0.3375    23.3298   109.1853 </r>
       <r>    -0.1372    22.1769   113.6260 </r>
       <r>     0.0630    23.5512   118.3418 </r>
       <r>     0.2632     8.1249   119.9687 </r>
       <r>     0.4635     6.7389   121.3181 </r>
       <r>     0.6637    21.6734   125.6580 </r>
       <r>     0.8640    10.1801   127.6964 </r>
       <r>     1.0642     4.8241   128.6624 </r>
       <r>     1.2644    13.1766   131.3008 </r>
       <r>     1.4647     9.0474   133.1125 </r>
       <r>     1.6649    13.0448   135.7245 </r>
       <r>     1.8651     1.3753   135.9999 </r>
       <r>     2.0654     0.0004   136.0000 </r>
       <r>     2.2656     0.0000   136.0000 </r>
       <r>     2.4659     0.0000   136.0000 </r>
       <r>     2.6661     0.0000   136.0000 </r>
       <r>     2.8663     0.0000   136.0000 </r>
       <r>     3.0666     0.0000   136.0000 </r>
       <r>     3.2668     0.0000   136.0000 </r>
       <r>     3.4671     0.0127   136.0025 </r>
       <r>     3.6673     6.7969   137.3635 </r>
       <r>     3.8675    54.6313   148.3028 </r>
       <r>     4.0678    51.9754   158.7102 </r>
       <r>     4.2680     6.4425   160.0003 </r>
       <r>     4.4682     6.0006   161.2018 </r>
       <r>     4.6685    23.3619   165.8797 </r>
       <r>     4.8687     8.7120   167.6242 </r>
       <r>     5.0690    16.0470   170.8374 </r>
       <r>     5.2692    24.7045   175.7842 </r>
       <r>     5.4694     1.0775   176.0000 </r>
       <r>     5.6697     0.0001   176.0000 </r>
       <r>     5.8699     0.0000   176.0000 </r>
       <r>     6.0701     0.0000   176.0000 </r>
       <r>     6.2704     0.0004   176.0001 </r>
       <r>     6.4706     1.3375   176.2679 </r>
       <r>     6.6709     8.2271   177.9153 </r>
       <r>     6.8711     0.4231   178.0000 </r>
       <r>     7.0713     0.0000   178.0000 </r>
       <r>     7.2716     0.0000   178.0000 </r>
       <r>     7.4718     0.0001   178.0000 </r>
       <r>     7.6720     0.7192   178.1440 </r>
       <r>     7.8723     8.4177   179.8296 </r>
       <r>     8.0725     0.8510   180.0000 </r>
       <r>     8.2728     0.0001   180.0000 </r>
       <r>     8.4730     0.1163   180.0233 </r>
       <r>     8.6732     7.0084   181.4266 </r>
       <r>     8.8735     2.8600   181.9993 </r>
       <r>     9.0737     0.0035   182.0000 </r>
       <r>     9.2739     0.8117   182.1625 </r>
       <r>     9.4742     8.4263   183.8498 </r>
       <r>     9.6744     4.0247   184.6557 </r>
       <r>     9.8747    10.5114   186.7605 </r>
       <r>    10.0749     8.5912   188.4808 </r>
       <r>    10.2751     9.9357   190.4703 </r>
       <r>    10.4754    15.1102   193.4959 </r>
       <r>    10.6756     2.5226   194.0010 </r>
       <r>    10.8759     5.7822   195.1589 </r>
       <r>    11.0761    14.0410   197.9704 </r>
       <r>    11.2763     6.7732   199.3267 </r>
       <r>    11.4766     7.1806   200.7645 </r>
       <r>    11.6768    26.0307   205.9768 </r>
       <r>    11.8770    10.0119   207.9816 </r>
       <r>    12.0773     5.7725   209.1374 </r>
       <r>    12.2775     4.2944   209.9973 </r>
       <r>    12.4778     0.0213   210.0016 </r>
       <r>    12.6780     3.7522   210.7529 </r>
       <r>    12.8782    15.6376   213.8842 </r>
       <r>    13.0785    27.1683   219.3243 </r>
       <r>    13.2787    22.8671   223.9032 </r>
       <r>    13.4789     0.4834   224.0000 </r>
       <r>    13.6792     0.0000   224.0000 </r>
       <r>    13.8794     0.0000   224.0000 </r>
       <r>    14.0797     0.0000   224.0000 </r>
       <r>    14.2799     0.0000   224.0000 </r>
       <r>    14.4801     0.0000   224.0000 </r>
       <r>    14.6804     0.0000   224.0000 </r>
       <r>    14.8806     0.0000   224.0000 </r>
       <r>    15.0808     0.0000   224.0000 </r>
       <r>    15.2811     0.0000   224.0000 </r>
       <r>    15.4813     0.0000   224.0000 </r>
       <r>    15.6816     0.0000   224.0000 </r>
       <r>    15.8818     0.0000   224.0000 </r>
      </set>
     </set>
    </array>
   </total>
  </dos>
 </calculation>
 <structure name="finalpos" >
  <crystal>
   <varray name="basis" >
    <v>      10.41910241       0.00000000       0.00000000 </v>
    <v>       0.00000000       6.06994347      -0.00000005 </v>
    <v>       0.00000000      -0.00000178       4.74918846 </v>
   </varray>
   <i name="volume">    300.35464797 </i>
   <varray name="rec_basis" >
    <v>       0.09597756       0.00000000       0.00000000 </v>
    <v>       0.00000000       0.16474618       0.00000006 </v>
    <v>       0.00000000       0.00000000       0.21056229 </v>
   </varray>
  </crystal>
  <varray name="positions" >
   <v>       0.11240831       0.24999728       0.44776489 </v>
   <v>       0.38760247       0.74999845       0.94779078 </v>
   <v>       0.61242148       0.24999939       0.05222892 </v>
   <v>       0.88760763       0.75000182       0.55223208 </v>
   <v>       0.99999898       0.00003552       0.00004772 </v>
   <v>       0.49993447       0.50016050       0.49979887 </v>
   <v>       0.49990476       0.99988067       0.49976460 </v>
   <v>       0.00003079       0.50000255       0.00001748 </v>
   <v>       0.10946592       0.24999722       0.77290913 </v>
   <v>       0.83327347       0.53914737       0.70095156 </v>
   <v>       0.83327670       0.96085675       0.70094800 </v>
   <v>       0.89047197       0.74999560       0.22709431 </v>
   <v>       0.02811708       0.75000053       0.67030295 </v>
   <v>       0.39044656       0.74999951       0.27296543 </v>
   <v>       0.16674709       0.03914723       0.29917599 </v>
   <v>       0.66678454       0.46086914       0.20074236 </v>
   <v>       0.33333048       0.53914005       0.79901679 </v>
   <v>       0.33332947       0.96085846       0.79903911 </v>
   <v>       0.97190912       0.24998966       0.32942157 </v>
   <v>       0.47194710       0.25000251       0.17079169 </v>
   <v>       0.52815116       0.74998896       0.82986860 </v>
   <v>       0.60941826       0.24999293       0.72712854 </v>
   <v>       0.66678796       0.03913191       0.20073807 </v>
   <v>       0.16674688       0.46085090       0.29919182 </v>
   <v>       0.77987021       0.25000067       0.49723965 </v>
   <v>       0.72007542       0.75000035       0.99725531 </v>
   <v>       0.27989193       0.25000070       0.00270996 </v>
   <v>       0.22009867       0.74999956       0.50275114 </v>
  </varray>
  <varray name="velocities" >
   <v>      -0.00021573       0.00000023       0.00031309 </v>
   <v>       0.00021472       0.00000045       0.00032072 </v>
   <v>      -0.00021860      -0.00000019      -0.00031097 </v>
   <v>       0.00021839       0.00000025      -0.00031589 </v>
   <v>       0.00000176       0.00000119       0.00000529 </v>
   <v>       0.00000539       0.00001940      -0.00003218 </v>
   <v>       0.00000481      -0.00001745      -0.00003579 </v>
   <v>       0.00000248       0.00000021       0.00000153 </v>
   <v>       0.00082036      -0.00000042       0.00129546 </v>
   <v>       0.00012159      -0.00066575       0.00068589 </v>
   <v>       0.00012183       0.00066553       0.00068452 </v>
   <v>      -0.00082261      -0.00000087      -0.00130634 </v>
   <v>       0.00116734       0.00000013      -0.00032303 </v>
   <v>      -0.00082474      -0.00000017       0.00130463 </v>
   <v>      -0.00011941      -0.00066490      -0.00067566 </v>
   <v>      -0.00011410       0.00066860       0.00067002 </v>
   <v>       0.00012385      -0.00065557      -0.00067989 </v>
   <v>       0.00012357       0.00065482      -0.00067792 </v>
   <v>      -0.00116268      -0.00000036       0.00031202 </v>
   <v>      -0.00115974       0.00000023      -0.00029296 </v>
   <v>       0.00116588      -0.00000052       0.00033183 </v>
   <v>       0.00081313      -0.00000101      -0.00129160 </v>
   <v>      -0.00011394      -0.00066839       0.00067085 </v>
   <v>      -0.00011915       0.00066440      -0.00067380 </v>
   <v>      -0.00020150       0.00000002       0.00017996 </v>
   <v>       0.00019720       0.00000008       0.00017948 </v>
   <v>      -0.00020205       0.00000013      -0.00018501 </v>
   <v>       0.00019914       0.00000017      -0.00018035 </v>
  </varray>
 </structure>
</modeling>
