MD-OXC                                  
           1
    10.419102    0.000000    0.000000
     0.000000    6.069943   -0.000000
     0.000000   -0.000002    4.749188
   P    Li   O    Fe
     4     4    16     4
Direct configuration=     1
   0.09399426  0.25000000  0.41810991
   0.40600574  0.75000000  0.91811091
   0.59399426  0.25000000  0.08188809
   0.90600574  0.75000000  0.58188909
   0.00000000  0.00000000  0.00000000
   0.50000000  0.50000000  0.50000000
   0.50000000  0.00000000  0.50000000
   0.00000000  0.50000000  0.00000000
   0.09604145  0.25000000  0.74165917
   0.83476027  0.54656004  0.71474048
   0.83476027  0.95344096  0.71474048
   0.90395955  0.75000000  0.25834183
   0.04372218  0.75000000  0.70783089
   0.40395855  0.75000000  0.24165817
   0.16523973  0.04656004  0.28526052
   0.66523973  0.45343996  0.21473948
   0.33476027  0.54656004  0.78526052
   0.33476027  0.95344096  0.78526052
   0.95627782  0.25000000  0.29217011
   0.45627782  0.25000000  0.20782989
   0.54372218  0.75000000  0.79217111
   0.59604145  0.25000000  0.75834283
   0.66523973  0.04656004  0.21473948
   0.16523973  0.45343996  0.28526052
   0.78094697  0.25000000  0.52535704
   0.71905303  0.75000000  0.02535904
   0.28094697  0.25000000  0.97464196
   0.21905303  0.75000000  0.47464196
Direct configuration=     2
   0.09400024  0.25000000  0.41812651
   0.40599976  0.75000000  0.91812747
   0.59400024  0.25000000  0.08187149
   0.90599975  0.75000000  0.58187253
  -0.00000000 -0.00000002 -0.00000001
   0.50000000  0.50000002  0.50000001
   0.50000000 -0.00000002  0.50000001
  -0.00000000  0.50000002 -0.00000001
   0.09605638  0.25000000  0.74165964
   0.83474637  0.54651699  0.71477399
   0.83474637  0.95348401  0.71477399
   0.90394461  0.75000000  0.25834132
   0.04374092  0.75000000  0.70779977
   0.40394361  0.75000000  0.24165872
   0.16525363  0.04651696  0.28522702
   0.66525365  0.45348307  0.21477296
   0.33474637  0.54651699  0.78522700
   0.33474637  0.95348400  0.78522701
   0.95625907  0.25000000  0.29220125
   0.45625910  0.25000000  0.20779877
   0.54374091  0.75000000  0.79220223
   0.59605636  0.25000000  0.75834228
   0.66525365  0.04651693  0.21477296
   0.16525363  0.45348304  0.28522702
   0.78094281  0.25000000  0.52533803
   0.71905718  0.75000000  0.02534009
   0.28094281  0.25000000  0.97466096
   0.21905719  0.75000000  0.47466093
Direct configuration=     3
   0.09401834  0.25000000  0.41817603
   0.40598165  0.75000001  0.91817689
   0.59401833  0.25000000  0.08182205
   0.90598164  0.75000001  0.58182310
  -0.00000001 -0.00000015  0.00000000
   0.49999999  0.50000015  0.49999999
   0.49999999 -0.00000015  0.49999999
  -0.00000001  0.50000015  0.00000001
   0.09610154  0.25000000  0.74166155
   0.83470454  0.54638756  0.71487489
   0.83470455  0.95361342  0.71487490
   0.90389944  0.75000000  0.25833940
   0.04379718  0.75000000  0.70770560
   0.40389843  0.75000000  0.24166071
   0.16529545  0.04638754  0.28512605
   0.66529546  0.45361241  0.21487397
   0.33470457  0.54638767  0.78512605
   0.33470458  0.95361330  0.78512608
   0.95620283  0.25000000  0.29229537
   0.45620286  0.25000000  0.20770463
   0.54379719  0.75000000  0.79229639
   0.59610151  0.25000000  0.75834020
   0.66529545  0.04638759  0.21487394
   0.16529545  0.45361246  0.28512608
   0.78093028  0.25000000  0.52528071
   0.71906975  0.75000000  0.02528270
   0.28093026  0.25000000  0.97471836
   0.21906974  0.75000000  0.47471825
Direct configuration=     4
   0.09404914  0.25000000  0.41825744
   0.40595079  0.75000003  0.91825823
   0.59404915  0.25000000  0.08174079
   0.90595083  0.75000002  0.58174178
  -0.00000004 -0.00000035  0.00000009
   0.49999996  0.50000036  0.49999990
   0.49999996 -0.00000036  0.49999990
  -0.00000004  0.50000035  0.00000010
   0.09617806  0.25000000  0.74166551
   0.83463482  0.54617180  0.71504424
   0.83463484  0.95382915  0.71504427
   0.90382298  0.75000000  0.25833535
   0.04389071  0.75000000  0.70754562
   0.40382190  0.75000000  0.24166476
   0.16536516  0.04617180  0.28495640
   0.66536515  0.45382814  0.21504371
   0.33463483  0.54617189  0.78495648
   0.33463485  0.95382905  0.78495656
   0.95610937  0.25000000  0.29245511
   0.45610938  0.25000000  0.20754471
   0.54389077  0.75000000  0.79245645
   0.59617805  0.25000000  0.75833605
   0.66536515  0.04617187  0.21504366
   0.16536516  0.45382819  0.28495646
   0.78090900  0.25000000  0.52518375
   0.71909100  0.75000000  0.02518556
   0.28090901  0.25000000  0.97481542
   0.21909102  0.75000000  0.47481531
Direct configuration=     5
   0.09409373  0.25000000  0.41836881
   0.40590608  0.75000004  0.91836954
   0.59409374  0.25000000  0.08162966
   0.90590627  0.75000004  0.58163048
  -0.00000007 -0.00000060  0.00000026
   0.49999991  0.50000063  0.49999973
   0.49999991 -0.00000063  0.49999974
  -0.00000007  0.50000060  0.00000026
   0.09628748  0.25000001  0.74167271
   0.83453747  0.54587048  0.71528351
   0.83453750  0.95413043  0.71528356
   0.90371361  0.75000000  0.25832801
   0.04402063  0.75000000  0.70731544
   0.40371247  0.75000001  0.24167207
   0.16546246  0.04587046  0.28471669
   0.66546248  0.45412948  0.21528361
   0.33453752  0.54587046  0.78471695
   0.33453756  0.95413043  0.78471709
   0.95597950  0.25000000  0.29268480
   0.45597956  0.25000000  0.20731468
   0.54402084  0.75000000  0.79268694
   0.59628758  0.25000000  0.75832860
   0.66546248  0.04587052  0.21528351
   0.16546245  0.45412953  0.28471679
   0.78087844  0.25000000  0.52504478
   0.71912148  0.75000000  0.02504623
   0.28087850  0.25000000  0.97495454
   0.21912156  0.75000000  0.47495448
Direct configuration=     6
   0.09415360  0.25000000  0.41850760
   0.40584606  0.75000007  0.91850822
   0.59415357  0.25000000  0.08149121
   0.90584649  0.75000006  0.58149173
  -0.00000014 -0.00000083  0.00000045
   0.49999987  0.50000088  0.49999952
   0.49999986 -0.00000088  0.49999952
  -0.00000013  0.50000083  0.00000046
   0.09643221  0.25000001  0.74168462
   0.83441276  0.54548393  0.71559499
   0.83441281  0.95451692  0.71559508
   0.90356891  0.75000000  0.25831587
   0.04418594  0.75000000  0.70700872
   0.40356769  0.75000001  0.24168417
   0.16558709  0.04548395  0.28440473
   0.66558720  0.45451605  0.21559602
   0.33441294  0.54548392  0.78440514
   0.33441299  0.95451691  0.78440537
   0.95581417  0.25000000  0.29299097
   0.45581435  0.25000000  0.20700811
   0.54418645  0.75000000  0.79299397
   0.59643254  0.25000000  0.75831621
   0.66558720  0.04548396  0.21559587
   0.16558708  0.45451604  0.28440488
   0.78083782  0.25000000  0.52486053
   0.71916193  0.75000001  0.02486148
   0.28083797  0.25000000  0.97513897
   0.21916212  0.75000001  0.47513898
Direct configuration=     7
   0.09423069  0.25000000  0.41867045
   0.40576881  0.75000010  0.91867091
   0.59423064  0.25000000  0.08132877
   0.90576949  0.75000009  0.58132899
  -0.00000019 -0.00000109  0.00000064
   0.49999983  0.50000115  0.49999931
   0.49999982 -0.00000115  0.49999932
  -0.00000019  0.50000109  0.00000065
   0.09661584  0.25000001  0.74170297
   0.83426093  0.54501263  0.71598220
   0.83426100  0.95498816  0.71598233
   0.90338539  0.75000000  0.25829718
   0.04438535  0.75000000  0.70661678
   0.40338405  0.75000001  0.24170283
   0.16573884  0.04501267  0.28401708
   0.66573905  0.45498731  0.21598421
   0.33426115  0.54501257  0.78401747
   0.33426122  0.95498819  0.78401780
   0.95561474  0.25000001  0.29338246
   0.45561493  0.25000000  0.20661612
   0.54438617  0.75000001  0.79338627
   0.59661638  0.25000000  0.75829729
   0.66573904  0.04501270  0.21598399
   0.16573884  0.45498732  0.28401731
   0.78078616  0.25000000  0.52462664
   0.71921342  0.75000001  0.02462707
   0.28078644  0.25000000  0.97537308
   0.21921374  0.75000001  0.47537309
Direct configuration=     8
   0.09432748  0.25000000  0.41885299
   0.40567185  0.75000013  0.91885317
   0.59432736  0.24999999  0.08114671
   0.90567286  0.75000012  0.58114660
  -0.00000023 -0.00000120  0.00000076
   0.49999980  0.50000130  0.49999917
   0.49999979 -0.00000129  0.49999918
  -0.00000022  0.50000120  0.00000077
   0.09684230  0.25000001  0.74173038
   0.83408250  0.54445777  0.71644896
   0.83408259  0.95554293  0.71644914
   0.90315897  0.75000000  0.25826942
   0.04461685  0.75000000  0.70612920
   0.40315755  0.75000002  0.24173064
   0.16591720  0.04445773  0.28355015
   0.66591743  0.45554203  0.21645180
   0.33408288  0.54445799  0.78355030
   0.33408298  0.95554269  0.78355074
   0.95538308  0.25000001  0.29386964
   0.45538337  0.25000000  0.20612844
   0.54461805  0.75000001  0.79387417
   0.59684314  0.24999999  0.75826910
   0.66591742  0.04445798  0.21645150
   0.16591719  0.45554225  0.28355046
   0.78072217  0.25000000  0.52433759
   0.71927729  0.75000001  0.02433750
   0.28072254  0.25000000  0.97566245
   0.21927766  0.75000001  0.47566222
Direct configuration=     9
   0.09444687  0.25000000  0.41904996
   0.40555224  0.75000017  0.91904986
   0.59444672  0.24999999  0.08095025
   0.90555361  0.75000016  0.58094978
  -0.00000025 -0.00000124  0.00000085
   0.49999977  0.50000140  0.49999905
   0.49999976 -0.00000139  0.49999906
  -0.00000025  0.50000125  0.00000086
   0.09711676  0.25000002  0.74176947
   0.83387810  0.54382092  0.71699978
   0.83387822  0.95617970  0.71700003
   0.90288456  0.75000000  0.25822994
   0.04487792  0.75000000  0.70553304
   0.40288305  0.75000002  0.24177021
   0.16612155  0.04382064  0.28299914
   0.66612180  0.45617889  0.21700360
   0.33387864  0.54382134  0.78299882
   0.33387877  0.95617924  0.78299940
   0.95512182  0.25000001  0.29446534
   0.45512218  0.25000000  0.20553205
   0.54487955  0.75000001  0.79447081
   0.59711797  0.24999999  0.75822929
   0.66612179  0.04382112  0.21700321
   0.16612155  0.45617933  0.28299956
   0.78064422  0.25000000  0.52398670
   0.71935507  0.75000001  0.02398601
   0.28064469  0.25000000  0.97601376
   0.21935552  0.75000001  0.47601319
Direct configuration=    10
   0.09459234  0.25000000  0.41925512
   0.40540651  0.75000021  0.91925474
   0.59459223  0.24999999  0.08074569
   0.90540827  0.75000020  0.58074473
  -0.00000029 -0.00000134  0.00000099
   0.49999974  0.50000156  0.49999887
   0.49999973 -0.00000155  0.49999888
  -0.00000028  0.50000136  0.00000101
   0.09744539  0.25000002  0.74182325
   0.83364853  0.54310400  0.71764011
   0.83364869  0.95689653  0.71764044
   0.90255609  0.75000001  0.25817577
   0.04516521  0.75000000  0.70481294
   0.40255437  0.75000003  0.24182436
   0.16635107  0.04310357  0.28235838
   0.66635136  0.45689570  0.21764529
   0.33364921  0.54310458  0.78235765
   0.33364937  0.95689589  0.78235839
   0.95483439  0.25000001  0.29518482
   0.45483478  0.25000000  0.20481165
   0.54516724  0.75000001  0.79519157
   0.59744702  0.24999999  0.75817498
   0.66635136  0.04310432  0.21764478
   0.16635107  0.45689640  0.28235891
   0.78055037  0.25000000  0.52356600
   0.71944869  0.75000002  0.02356458
   0.28055098  0.25000000  0.97643493
   0.21944928  0.75000002  0.47643403
Direct configuration=    11
   0.09476795  0.25000000  0.41946111
   0.40523063  0.75000026  0.91946037
   0.59476790  0.24999999  0.08054033
   0.90523281  0.75000024  0.58053892
  -0.00000033 -0.00000151  0.00000111
   0.49999972  0.50000178  0.49999872
   0.49999971 -0.00000176  0.49999874
  -0.00000032  0.50000153  0.00000112
   0.09783517  0.25000002  0.74189500
   0.83339496  0.54231027  0.71837622
   0.83339515  0.95769014  0.71837663
   0.90216636  0.75000001  0.25810369
   0.04547417  0.75000001  0.70395168
   0.40216441  0.75000004  0.24189638
   0.16660453  0.04230965  0.28162204
   0.66660490  0.45768941  0.21838267
   0.33339577  0.54231096  0.78162063
   0.33339596  0.95768941  0.78162155
   0.95452526  0.25000001  0.29604568
   0.45452565  0.25000000  0.20394981
   0.54547662  0.75000002  0.79605363
   0.59783725  0.24999999  0.75810269
   0.66660489  0.04231060  0.21838203
   0.16660453  0.45769032  0.28162271
   0.78043838  0.25000000  0.52306620
   0.71956046  0.75000002  0.02306409
   0.28043917  0.25000001  0.97693521
   0.21956122  0.75000002  0.47693388
Direct configuration=    12
   0.09497819  0.25000000  0.41965938
   0.40502019  0.75000030  0.91965825
   0.59497816  0.24999999  0.08034266
   0.90502275  0.75000029  0.58034086
  -0.00000039 -0.00000165  0.00000124
   0.49999971  0.50000200  0.49999857
   0.49999970 -0.00000198  0.49999859
  -0.00000037  0.50000168  0.00000126
   0.09829414  0.25000003  0.74198788
   0.83311906  0.54144423  0.71921443
   0.83311929  0.95855606  0.71921494
   0.90170737  0.75000001  0.25801048
   0.04579900  0.75000001  0.70292983
   0.40170523  0.75000004  0.24198954
   0.16688030  0.04144343  0.28078373
   0.66688078  0.45855546  0.21922204
   0.33312004  0.54144503  0.78078160
   0.33312027  0.95855521  0.78078271
   0.95420021  0.25000002  0.29706726
   0.45420068  0.25000000  0.20292734
   0.54580183  0.75000002  0.79707617
   0.59829670  0.24999999  0.75800916
   0.66688077  0.04144456  0.21922126
   0.16688030  0.45855653  0.28078455
   0.78030566  0.25000000  0.52247701
   0.71969296  0.75000002  0.02247421
   0.28030662  0.25000001  0.97752486
   0.21969389  0.75000002  0.47752310
Direct configuration=    13
   0.09522783  0.25000000  0.41984034
   0.40477044  0.75000035  0.91983886
   0.59522773  0.24999999  0.08016221
   0.90477332  0.75000034  0.58016015
  -0.00000044 -0.00000178  0.00000137
   0.49999970  0.50000224  0.49999845
   0.49999969 -0.00000221  0.49999847
  -0.00000043  0.50000181  0.00000138
   0.09883105  0.25000003  0.74210467
   0.83282303  0.54051231  0.72016110
   0.83282330  0.95948785  0.72016171
   0.90117036  0.75000002  0.25789326
   0.04613220  0.75000001  0.70172682
   0.40116816  0.75000005  0.24210673
   0.16717616  0.04051129  0.27983711
   0.66717678  0.45948748  0.22016958
   0.33282422  0.54051324  0.77983432
   0.33282448  0.95948687  0.77983564
   0.95386673  0.25000002  0.29827013
   0.45386732  0.25000000  0.20172381
   0.54613543  0.75000002  0.79827975
   0.59883405  0.24999999  0.75789157
   0.66717677  0.04051253  0.22016865
   0.16717617  0.45948868  0.27983809
   0.78014936  0.25000000  0.52178728
   0.71984911  0.75000003  0.02178386
   0.28015045  0.25000001  0.97821501
   0.21985015  0.75000003  0.47821280
Direct configuration=    14
   0.09552168  0.25000000  0.41999347
   0.40447650  0.75000040  0.91999164
   0.59552151  0.24999999  0.08000955
   0.90447968  0.75000039  0.58000725
  -0.00000051 -0.00000197  0.00000149
   0.49999969  0.50000256  0.49999837
   0.49999968 -0.00000252  0.49999838
  -0.00000050  0.50000201  0.00000150
   0.09945470  0.25000003  0.74224770
   0.83250998  0.53952365  0.72122125
   0.83251029  0.96047637  0.72122198
   0.90054657  0.75000003  0.25774983
   0.04646426  0.75000002  0.70032235
   0.40054428  0.75000006  0.24225013
   0.16748908  0.03952237  0.27877707
   0.66748981  0.46047628  0.22123063
   0.33251137  0.53952467  0.77877353
   0.33251167  0.96047531  0.77877506
   0.95353437  0.25000002  0.29967444
   0.45353507  0.25000001  0.20031871
   0.54646783  0.75000003  0.79968487
   0.59945820  0.24999999  0.75774786
   0.66748980  0.03952373  0.22122954
   0.16748909  0.46047760  0.27877821
   0.77996641  0.25000001  0.52098578
   0.72003189  0.75000003  0.02098175
   0.27996765  0.25000002  0.97901695
   0.22003306  0.75000003  0.47901420
Direct configuration=    15
   0.09586416  0.25000000  0.42010756
   0.40413392  0.75000045  0.92010553
   0.59586403  0.25000000  0.07989587
   0.90413731  0.75000044  0.57989324
  -0.00000060 -0.00000209  0.00000165
   0.49999969  0.50000281  0.49999825
   0.49999968 -0.00000277  0.49999827
  -0.00000059  0.50000214  0.00000166
   0.10017346  0.25000003  0.74241788
   0.83218402  0.53849097  0.72239779
   0.83218438  0.96150891  0.72239863
   0.89982784  0.75000004  0.25757925
   0.04678344  0.75000002  0.69869796
   0.39982543  0.75000007  0.24242070
   0.16781496  0.03848926  0.27760038
   0.66781577  0.46150935  0.22240820
   0.33218561  0.53849187  0.77759632
   0.33218595  0.96150798  0.77759808
   0.95321505  0.25000002  0.30129855
   0.45321577  0.25000001  0.19869383
   0.54678720  0.75000003  0.80131007
   0.60017738  0.25000000  0.75757725
   0.66781576  0.03849064  0.22240695
   0.16781498  0.46151072  0.27760169
   0.77975385  0.25000001  0.52006218
   0.72024421  0.75000003  0.02005750
   0.27975525  0.25000002  0.97994099
   0.22024551  0.75000004  0.47993773
Direct configuration=    16
   0.09625885  0.25000000  0.42017143
   0.40373919  0.75000049  0.92016922
   0.59625874  0.25000000  0.07983233
   0.90374274  0.75000049  0.57982942
  -0.00000070 -0.00000220  0.00000182
   0.49999971  0.50000308  0.49999814
   0.49999970 -0.00000302  0.49999815
  -0.00000069  0.50000226  0.00000183
   0.10099376  0.25000003  0.74261421
   0.83185057  0.53743108  0.72369000
   0.83185097  0.96256864  0.72369097
   0.89900757  0.75000005  0.25738263
   0.04707537  0.75000003  0.69684030
   0.39900513  0.75000008  0.24261736
   0.16814836  0.03742895  0.27630799
   0.66814916  0.46256957  0.22370139
   0.33185246  0.53743184  0.77630351
   0.33185283  0.96256787  0.77630548
   0.95292297  0.25000003  0.30315604
   0.45292371  0.25000001  0.19683566
   0.54707924  0.75000004  0.80316853
   0.60099806  0.25000000  0.75738060
   0.66814915  0.03743041  0.22369998
   0.16814839  0.46257103  0.27630947
   0.77950922  0.25000001  0.51900859
   0.72048863  0.75000004  0.01900322
   0.27951073  0.25000002  0.98099506
   0.22049001  0.75000004  0.48099123
Direct configuration=    17
   0.09670746  0.25000000  0.42017463
   0.40329063  0.75000053  0.92017224
   0.59670737  0.25000000  0.07982935
   0.90329422  0.75000054  0.57982630
  -0.00000081 -0.00000228  0.00000202
   0.49999974  0.50000335  0.49999805
   0.49999974 -0.00000329  0.49999806
  -0.00000080  0.50000235  0.00000202
   0.10191865  0.25000003  0.74283301
   0.83151659  0.53636593  0.72509133
   0.83151704  0.96363363  0.72509241
   0.89808264  0.75000007  0.25716367
   0.04732360  0.75000004  0.69474472
   0.39808016  0.75000009  0.24283642
   0.16848228  0.03636337  0.27490666
   0.66848305  0.46363507  0.22510341
   0.33151878  0.53636654  0.77490167
   0.33151919  0.96363304  0.77490387
   0.95267462  0.25000003  0.30525170
   0.45267541  0.25000001  0.19473950
   0.54732739  0.75000005  0.80526480
   0.60192330  0.25000000  0.75716159
   0.66848305  0.03636490  0.22510184
   0.16848232  0.46363661  0.27490830
   0.77923089  0.25000002  0.51782153
   0.72076678  0.75000004  0.01781554
   0.27923250  0.25000003  0.98218259
   0.22076824  0.75000005  0.48217814
Direct configuration=    18
   0.09720898  0.24999999  0.42010858
   0.40278923  0.75000057  0.92010604
   0.59720894  0.25000001  0.07989550
   0.90279276  0.75000058  0.57989238
  -0.00000094 -0.00000241  0.00000221
   0.49999979  0.50000369  0.49999799
   0.49999979 -0.00000361  0.49999799
  -0.00000093  0.50000249  0.00000221
   0.10294610  0.25000002  0.74306734
   0.83119057  0.53532267  0.72658718
   0.83119107  0.96467673  0.72658837
   0.89705509  0.75000008  0.25692929
   0.04750998  0.75000005  0.69241964
   0.39705255  0.75000010  0.24307096
   0.16880823  0.03531965  0.27341088
   0.66880897  0.46467874  0.22659983
   0.33119305  0.53532306  0.77340530
   0.33119350  0.96467639  0.77340770
   0.95248813  0.25000003  0.30757701
   0.45248889  0.25000002  0.19241371
   0.54751359  0.75000006  0.80759066
   0.60295113  0.25000001  0.75692724
   0.66880897  0.03532121  0.22659811
   0.16880829  0.46468035  0.27341269
   0.77891870  0.25000002  0.51650438
   0.72107884  0.75000004  0.01649782
   0.27892040  0.25000004  0.98350021
   0.22108036  0.75000005  0.48349507
Direct configuration=    19
   0.09775880  0.24999999  0.41996792
   0.40223953  0.75000060  0.91996541
   0.59775890  0.25000002  0.08003623
   0.90224286  0.75000063  0.58003284
  -0.00000109 -0.00000260  0.00000248
   0.49999986  0.50000411  0.49999787
   0.49999986 -0.00000402  0.49999786
  -0.00000109  0.50000270  0.00000247
   0.10406743  0.25000002  0.74330679
   0.83088213  0.53433266  0.72815353
   0.83088268  0.96566659  0.72815483
   0.89593387  0.75000010  0.25668997
   0.04761633  0.75000007  0.68988991
   0.39593121  0.75000010  0.24331057
   0.16911659  0.03432915  0.27184428
   0.66911722  0.46566898  0.22816704
   0.33088490  0.53433287  0.77183827
   0.33088537  0.96566646  0.77184087
   0.95238196  0.25000003  0.31010668
   0.45238261  0.25000002  0.18988359
   0.54761954  0.75000007  0.81012122
   0.60407282  0.25000001  0.75668817
   0.66911722  0.03433095  0.22816516
   0.16911666  0.46567086  0.27184625
   0.77857446  0.25000003  0.51506952
   0.72142293  0.75000004  0.01506215
   0.27857623  0.25000005  0.98493566
   0.22142448  0.75000005  0.48492982
Direct configuration=    20
   0.09834844  0.24999999  0.41975188
   0.40165002  0.75000063  0.91974953
   0.59834873  0.25000002  0.08025224
   0.90165308  0.75000066  0.58024855
  -0.00000125 -0.00000283  0.00000276
   0.49999992  0.50000458  0.49999775
   0.49999993 -0.00000447  0.49999773
  -0.00000126  0.50000295  0.00000274
   0.10526614  0.25000001  0.74353774
   0.83060149  0.53342966  0.72975736
   0.83060207  0.96656944  0.72975876
   0.89473534  0.75000013  0.25645924
   0.04762586  0.75000008  0.68719922
   0.39473250  0.75000011  0.24354167
   0.16939715  0.03342571  0.27024005
   0.66939770  0.46657214  0.22977187
   0.33060450  0.53342962  0.77023357
   0.33060500  0.96656960  0.77023636
   0.95237268  0.25000003  0.31279734
   0.45237317  0.25000003  0.18719266
   0.54762855  0.75000008  0.81281277
   0.60527187  0.25000002  0.75645786
   0.66939770  0.03342776  0.22976986
   0.16939722  0.46657432  0.27024216
   0.77820241  0.25000004  0.51353906
   0.72179480  0.75000004  0.01353083
   0.27820428  0.25000006  0.98646673
   0.22179642  0.75000005  0.48646021
Direct configuration=    21
   0.09896569  0.24999999  0.41946496
   0.40103295  0.75000064  0.91946289
   0.59896620  0.25000003  0.08053899
   0.90103566  0.75000068  0.58053507
  -0.00000144 -0.00000315  0.00000309
   0.49999999  0.50000515  0.49999760
   0.50000001 -0.00000503  0.49999757
  -0.00000145  0.50000328  0.00000305
   0.10651859  0.25000000  0.74374457
   0.83035830  0.53264644  0.73135829
   0.83035892  0.96735252  0.73135980
   0.89348310  0.75000015  0.25625284
   0.04752577  0.75000010  0.68440798
   0.39348006  0.75000012  0.24374845
   0.16964024  0.03264210  0.26863857
   0.66964074  0.46735555  0.23137384
   0.33036150  0.53264596  0.76863184
   0.33036202  0.96735317  0.76863481
   0.95247314  0.25000003  0.31558858
   0.45247346  0.25000003  0.18440110
   0.54752776  0.75000009  0.81560480
   0.60652461  0.25000003  0.75625202
   0.66964075  0.03264433  0.23137169
   0.16964033  0.46735795  0.26864082
   0.77780912  0.25000005  0.51194442
   0.72218788  0.75000004  0.01193534
   0.27781112  0.25000007  0.98806191
   0.22218959  0.75000005  0.48805486
Direct configuration=    22
   0.09959572  0.24999999  0.41911691
   0.40040312  0.75000065  0.91911509
   0.59959646  0.25000004  0.08088684
   0.90040546  0.75000070  0.58088268
  -0.00000164 -0.00000361  0.00000347
   0.50000004  0.50000587  0.49999742
   0.50000007 -0.00000574  0.49999738
  -0.00000166  0.50000375  0.00000342
   0.10779601  0.24999998  0.74391090
   0.83016050  0.53201069  0.73291243
   0.83016115  0.96798814  0.73291404
   0.89220584  0.75000018  0.25608713
   0.04730893  0.75000012  0.68158774
   0.39220254  0.75000012  0.24391456
   0.16983794  0.03200612  0.26708374
   0.66983833  0.46799120  0.23292912
   0.33016394  0.53200996  0.76707690
   0.33016446  0.96798910  0.76708002
   0.95269046  0.25000003  0.31840887
   0.45269054  0.25000004  0.18158054
   0.54731016  0.75000010  0.81842571
   0.60780228  0.25000003  0.75608690
   0.66983835  0.03200865  0.23292685
   0.16983804  0.46799395  0.26708612
   0.77740304  0.25000005  0.51032362
   0.72259381  0.75000004  0.01031346
   0.27740512  0.25000008  0.98968338
   0.22259558  0.75000005  0.48967578
Direct configuration=    23
   0.10022284  0.24999998  0.41872148
   0.39977618  0.75000065  0.91871993
   0.60022389  0.25000004  0.08128207
   0.89977812  0.75000071  0.58127770
  -0.00000185 -0.00000408  0.00000384
   0.50000009  0.50000659  0.49999722
   0.50000013 -0.00000644  0.49999716
  -0.00000188  0.50000425  0.00000377
   0.10906791  0.24999997  0.74402191
   0.83001351  0.53154235  0.73437767
   0.83001418  0.96845638  0.73437939
   0.89093408  0.75000021  0.25597678
   0.04697506  0.75000014  0.67881274
   0.39093047  0.75000012  0.24402527
   0.16998485  0.03153754  0.26561773
   0.66998510  0.46845943  0.23439556
   0.33001713  0.53154128  0.76561071
   0.33001766  0.96845773  0.76561397
   0.95302487  0.25000003  0.32118404
   0.45302462  0.25000004  0.17880514
   0.54697553  0.75000011  0.82120150
   0.60907449  0.25000004  0.75597725
   0.66998513  0.03154040  0.23439316
   0.16998497  0.46846255  0.26562023
   0.77699334  0.25000006  0.50871649
   0.72300335  0.75000004  0.00870525
   0.27699553  0.25000009  0.99129118
   0.22300520  0.75000005  0.49128305
Direct configuration=    24
   0.10083258  0.24999998  0.41829461
   0.39916665  0.75000064  0.91829347
   0.60083386  0.25000005  0.08170866
   0.89916816  0.75000071  0.58170407
  -0.00000204 -0.00000442  0.00000425
   0.50000015  0.50000718  0.49999704
   0.50000020 -0.00000701  0.49999696
  -0.00000208  0.50000460  0.00000416
   0.11030581  0.24999995  0.74406584
   0.82991954  0.53125122  0.73571867
   0.82992024  0.96874743  0.73572049
   0.88969637  0.75000023  0.25593339
   0.04653062  0.75000016  0.67615064
   0.38969253  0.75000012  0.24406886
   0.17007872  0.03124619  0.26427605
   0.67007888  0.46875052  0.23573751
   0.32992334  0.53124989  0.76426905
   0.32992387  0.96874909  0.76427242
   0.95346983  0.25000003  0.32384622
   0.45346942  0.25000005  0.17614278
   0.54653027  0.75000012  0.82386417
   0.61031261  0.25000005  0.75593475
   0.67007891  0.03124927  0.23573501
   0.17007885  0.46875393  0.26427865
   0.77658898  0.25000007  0.50716009
   0.72340758  0.75000004  0.00714797
   0.27659124  0.25000010  0.99284815
   0.22340947  0.75000005  0.49283951
Direct configuration=    25
   0.10141310  0.24999998  0.41785267
   0.39858631  0.75000062  0.91785203
   0.60141463  0.25000006  0.08215035
   0.89858737  0.75000069  0.58214544
  -0.00000223 -0.00000480  0.00000462
   0.50000020  0.50000777  0.49999684
   0.50000026 -0.00000759  0.49999675
  -0.00000229  0.50000500  0.00000451
   0.11148597  0.24999993  0.74403498
   0.82987774  0.53113726  0.73690941
   0.82987844  0.96886134  0.73691132
   0.88851645  0.75000026  0.25596475
   0.04598735  0.75000018  0.67365630
   0.38851240  0.75000012  0.24403770
   0.17012041  0.03113206  0.26308449
   0.67012046  0.46886442  0.23692920
   0.32988168  0.53113559  0.76307764
   0.32988220  0.96886338  0.76308111
   0.95401370  0.25000002  0.32634060
   0.45401305  0.25000005  0.17364828
   0.54598622  0.75000013  0.82635908
   0.61149292  0.25000006  0.75596717
   0.67012050  0.03113535  0.23692661
   0.17012055  0.46886808  0.26308719
   0.77619762  0.25000008  0.50568501
   0.72379883  0.75000004  0.00567200
   0.27619994  0.25000011  0.99432378
   0.22380074  0.75000005  0.49431467
Direct configuration=    26
   0.10195623  0.24999998  0.41741071
   0.39804337  0.75000059  0.91741052
   0.60195797  0.25000007  0.08259206
   0.89804403  0.75000067  0.58258694
  -0.00000240 -0.00000515  0.00000496
   0.50000025  0.50000832  0.49999666
   0.50000033 -0.00000813  0.49999656
  -0.00000246  0.50000536  0.00000483
   0.11259108  0.24999992  0.74392592
   0.82988476  0.53119232  0.73793490
   0.82988547  0.96880622  0.73793689
   0.88741145  0.75000027  0.25607419
   0.04536058  0.75000019  0.67136836
   0.38740721  0.75000013  0.24392834
   0.17011328  0.03118699  0.26205834
   0.67011323  0.46880935  0.23795536
   0.32988882  0.53119034  0.76205165
   0.32988931  0.96880868  0.76205520
   0.95464098  0.25000004  0.32862866
   0.45464017  0.25000004  0.17136011
   0.54535873  0.75000015  0.82864748
   0.61259818  0.25000006  0.75607771
   0.67011328  0.03119039  0.23795270
   0.17011345  0.46881321  0.26206111
   0.77582512  0.25000009  0.50431304
   0.72417126  0.75000003  0.00429924
   0.27582750  0.25000012  0.99569623
   0.22417319  0.75000004  0.49568674
Direct configuration=    27
   0.10245734  0.24999998  0.41698148
   0.39754242  0.75000055  0.91698163
   0.60245933  0.25000008  0.08302115
   0.89754268  0.75000065  0.58301585
  -0.00000254 -0.00000543  0.00000524
   0.50000030  0.50000876  0.49999645
   0.50000039 -0.00000856  0.49999634
  -0.00000262  0.50000565  0.00000510
   0.11361089  0.24999991  0.74373905
   0.82993550  0.53140242  0.73878971
   0.82993620  0.96859606  0.73879177
   0.88639173  0.75000027  0.25626150
   0.04466731  0.75000019  0.66930945
   0.38638731  0.75000013  0.24374105
   0.17006251  0.03139696  0.26120284
   0.67006232  0.46859917  0.23881087
   0.32993963  0.53140018  0.76119622
   0.32994010  0.96859892  0.76119982
   0.95533471  0.25000005  0.33068787
   0.45533366  0.25000003  0.16930085
   0.54466485  0.75000018  0.83070687
   0.61361810  0.25000005  0.75626612
   0.67006238  0.03140053  0.23880818
   0.17006269  0.46860330  0.26120566
   0.77547535  0.25000011  0.50305721
   0.72452098  0.75000003  0.00304264
   0.27547778  0.25000012  0.99695257
   0.22452293  0.75000004  0.49694263
Direct configuration=    28
   0.10291506  0.24999997  0.41657494
   0.39708481  0.75000051  0.91657541
   0.60291728  0.25000009  0.08342761
   0.89708476  0.75000062  0.58342213
  -0.00000268 -0.00000570  0.00000550
   0.50000033  0.50000917  0.49999625
   0.50000043 -0.00000895  0.49999612