 vasp.6.3.2 27Jun22 (build Mar 23 2024 20:02:39) complex                        
  
 executed on             LinuxIFC date 2025.06.11  09:37:12
 running on   56 total cores
 distrk:  each k-point on   56 cores,    1 groups
 distr:  one band on NCORE=   1 cores,   56 groups


--------------------------------------------------------------------------------------------------------


 INCAR:
   SYSTEM = DOS
   PREC = Accurate
   ENCUT = 520
   ISTART = 1
   ICHARG = 11
   EDIFF = 1E-5
   EDIFFG = -0.01
   NELM = 100
   NELMIN = 2
   ALGO = Normal
   ISMEAR = 0
   SIGMA = 0.05
   IBRION = -1
   NSW = 0
   ISIF = 2
   POTIM = 0
   ISPIN = 2
   LDAU = .TRUE.
   LDAUTYPE = 2
   LDAUL = -1  2  -1 -1
   LDAUU = 0  5  0  0
   LDAUJ = 0  0  0   0
   LMAXMIX = 4
   GGA = PE
   LREAL = Auto
   LWAVE = .FALSE.
   LCHARG = .FALSE.
   NEDOS = 5000
   LORBIT = 11

 POTCAR:   PAW_PBE Li_sv 23Jan2001                
 POTCAR:   PAW_PBE Fe 06Sep2000                   
 POTCAR:    PAW_PBE P 17Jan2003                   
 POTCAR:   PAW_PBE O 08Apr2002                    
 -----------------------------------------------------------------------------
|                                                                             |
|           W    W    AA    RRRRR   N    N  II  N    N   GGGG   !!!           |
|           W    W   A  A   R    R  NN   N  II  NN   N  G    G  !!!           |
|           W    W  A    A  R    R  N N  N  II  N N  N  G       !!!           |
|           W WW W  AAAAAA  RRRRR   N  N N  II  N  N N  G  GGG   !            |
|           WW  WW  A    A  R   R   N   NN  II  N   NN  G    G                |
|           W    W  A    A  R    R  N    N  II  N    N   GGGG   !!!           |
|                                                                             |
|     You use a magnetic or noncollinear calculation, but did not specify     |
|     the initial magnetic moment with the MAGMOM tag. Note that a            |
|     default of 1 will be used for all atoms. This ferromagnetic setup       |
|     may break the symmetry of the crystal, in particular it may rule        |
|     out finding an antiferromagnetic solution. Thence, we recommend         |
|     setting the initial magnetic moment manually or verifying carefully     |
|     that this magnetic setup is desired.                                    |
|                                                                             |
 -----------------------------------------------------------------------------

 -----------------------------------------------------------------------------
|                                                                             |
|           W    W    AA    RRRRR   N    N  II  N    N   GGGG   !!!           |
|           W    W   A  A   R    R  NN   N  II  NN   N  G    G  !!!           |
|           W    W  A    A  R    R  N N  N  II  N N  N  G       !!!           |
|           W WW W  AAAAAA  RRRRR   N  N N  II  N  N N  G  GGG   !            |
|           WW  WW  A    A  R   R   N   NN  II  N   NN  G    G                |
|           W    W  A    A  R    R  N    N  II  N    N   GGGG   !!!           |
|                                                                             |
|     For optimal performance we recommend to set                             |
|       NCORE = 2 up to number-of-cores-per-socket                            |
|     NCORE specifies how many cores store one orbital (NPAR=cpu/NCORE).      |
|     This setting can greatly improve the performance of VASP for DFT.       |
|     The default, NCORE=1 might be grossly inefficient on modern             |
|     multi-core architectures or massively parallel machines. Do your        |
|     own testing! More info at https://www.vasp.at/wiki/index.php/NCORE      |
|     Unfortunately you need to use the default for GW and RPA                |
|     calculations (for HF NCORE is supported but not extensively tested      |
|     yet).                                                                   |
|                                                                             |
 -----------------------------------------------------------------------------

 POTCAR:   PAW_PBE Li_sv 23Jan2001                
   VRHFIN =Li: 1s2s2p                                                                               
   LEXCH  = PE                                                                                      
   EATOM  =   202.7858 eV,   14.9043 Ry                                                             
                                                                                                    
   TITEL  = PAW_PBE Li_sv 23Jan2001                                                                 
   LULTRA =        F    use ultrasoft PP ?                                                          
   IUNSCR =        0    unscreen: 0-lin 1-nonlin 2-no                                               
   RPACOR =     .000    partial core radius                                                         
   POMASS =    7.010; ZVAL   =    3.000    mass and valenz                                          
   RCORE  =    2.050    outmost cutoff radius                                                       
   RWIGS  =    2.050; RWIGS  =    1.085    wigner-seitz radius (au A)                               
   ENMAX  =  271.649; ENMIN  =  203.737 eV                                                          
   ICORE  =        2    local potential                                                             
   LCOR   =        T    correct aug charges                                                         
   LPAW   =        T    paw PP                                                                      
   EAUG   =  428.394                                                                                
   RMAX   =    2.797    core radius for proj-oper                                                   
   RAUG   =    1.300    factor for augmentation sphere                                              
   RDEP   =    2.094    radius for radial grids                                                     
   RDEPT  =    1.550    core radius for aug-charge                                                  
   QCUT   =   -4.468; QGAM   =    8.937    optimization parameters                                  
                                                                                                    
   Description                                                                                      
     l     E      TYP  RCUT    TYP  RCUT                                                            
     0   .000     23  1.550                                                                         
     0   .000     23  2.050                                                                         
     0   .000     23  1.550                                                                         
     0   .000     23  2.050                                                                         
     1  -.200     23  2.050                                                                         
     1  1.500     23  2.050                                                                         
     2   .000      7  1.550                                                                         
  local pseudopotential read in
  atomic valenz-charges read in
  non local Contribution for L=           0  read in
    real space projection operators read in
  non local Contribution for L=           0  read in
    real space projection operators read in
  non local Contribution for L=           1  read in
    real space projection operators read in
  non local Contribution for L=           1  read in
    real space projection operators read in
    PAW grid and wavefunctions read in
 
   number of l-projection  operators is LMAX  =           4
   number of lm-projection operators is LMMAX =           8
 
 POTCAR:   PAW_PBE Fe 06Sep2000                   
   VRHFIN =Fe:  d7 s1                                                                               
   LEXCH  = PE                                                                                      
   EATOM  =   594.4687 eV,   43.6922 Ry                                                             
                                                                                                    
   TITEL  = PAW_PBE Fe 06Sep2000                                                                    
   LULTRA =        F    use ultrasoft PP ?                                                          
   IUNSCR =        1    unscreen: 0-lin 1-nonlin 2-no                                               
   RPACOR =    2.000    partial core radius                                                         
   POMASS =   55.847; ZVAL   =    8.000    mass and valenz                                          
   RCORE  =    2.300    outmost cutoff radius                                                       
   RWIGS  =    2.460; RWIGS  =    1.302    wigner-seitz radius (au A)                               
   ENMAX  =  267.883; ENMIN  =  200.912 eV                                                          
   RCLOC  =    1.701    cutoff for local pot                                                        
   LCOR   =        T    correct aug charges                                                         
   LPAW   =        T    paw PP                                                                      
   EAUG   =  511.368                                                                                
   DEXC   =    -.022                                                                                
   RMAX   =    2.817    core radius for proj-oper                                                   
   RAUG   =    1.300    factor for augmentation sphere                                              
   RDEP   =    2.442    radius for radial grids                                                     
   QCUT   =   -4.437; QGAM   =    8.874    optimization parameters                                  
                                                                                                    
   Description                                                                                      
     l     E      TYP  RCUT    TYP  RCUT                                                            
     2   .000     23  2.300                                                                         
     2   .000     23  2.300                                                                         
     0   .000     23  2.300                                                                         
     0   .000     23  2.300                                                                         
     1  -.200     23  2.300                                                                         
     1   .000     23  2.300                                                                         
     3   .000      7   .000                                                                         
  local pseudopotential read in
  partial core-charges read in
  atomic valenz-charges read in
  non local Contribution for L=           2  read in
    real space projection operators read in
  non local Contribution for L=           2  read in
    real space projection operators read in
  non local Contribution for L=           0  read in
    real space projection operators read in
  non local Contribution for L=           0  read in
    real space projection operators read in
  non local Contribution for L=           1  read in
    real space projection operators read in
  non local Contribution for L=           1  read in
    real space projection operators read in
    PAW grid and wavefunctions read in
 
   number of l-projection  operators is LMAX  =           6
   number of lm-projection operators is LMMAX =          18
 
 POTCAR:    PAW_PBE P 17Jan2003                   
   VRHFIN =P : s2p3                                                                                 
   LEXCH  = PE                                                                                      
   EATOM  =   176.0430 eV,   12.9388 Ry                                                             
                                                                                                    
   TITEL  = PAW_PBE P 17Jan2003                                                                     
   LULTRA =        F    use ultrasoft PP ?                                                          
   IUNSCR =        1    unscreen: 0-lin 1-nonlin 2-no                                               
   RPACOR =    1.500    partial core radius                                                         
   POMASS =   30.974; ZVAL   =    5.000    mass and valenz                                          
   RCORE  =    1.900    outmost cutoff radius                                                       
   RWIGS  =    2.330; RWIGS  =    1.233    wigner-seitz radius (au A)                               
   ENMAX  =  270.000; ENMIN  =  191.280 eV                                                          
   ICORE  =        2    local potential                                                             
   LCOR   =        T    correct aug charges                                                         
   LPAW   =        T    paw PP                                                                      
   EAUG   =  342.924                                                                                
   DEXC   =    -.002                                                                                
   RMAX   =    2.887    core radius for proj-oper                                                   
   RAUG   =    1.300    factor for augmentation sphere                                              
   RDEP   =    1.931    radius for radial grids                                                     
   QCUT   =   -4.330; QGAM   =    8.659    optimization parameters                                  
                                                                                                    
   Description                                                                                      
     l     E      TYP  RCUT    TYP  RCUT                                                            
     0   .000     23  1.900                                                                         
     0   .000     23  1.900                                                                         
     1   .000     23  1.900                                                                         
     1   .000     23  1.900                                                                         
     2   .000     23  1.900                                                                         
  local pseudopotential read in
  partial core-charges read in
  atomic valenz-charges read in
  non local Contribution for L=           0  read in
    real space projection operators read in
  non local Contribution for L=           0  read in
    real space projection operators read in
  non local Contribution for L=           1  read in
    real space projection operators read in
  non local Contribution for L=           1  read in
    real space projection operators read in
    PAW grid and wavefunctions read in
 
   number of l-projection  operators is LMAX  =           4
   number of lm-projection operators is LMMAX =           8
 
 POTCAR:   PAW_PBE O 08Apr2002                    
   VRHFIN =O: s2p4                                                                                  
   LEXCH  = PE                                                                                      
   EATOM  =   432.3788 eV,   31.7789 Ry                                                             
                                                                                                    
   TITEL  = PAW_PBE O 08Apr2002                                                                     
   LULTRA =        F    use ultrasoft PP ?                                                          
   IUNSCR =        0    unscreen: 0-lin 1-nonlin 2-no                                               
   RPACOR =     .000    partial core radius                                                         
   POMASS =   16.000; ZVAL   =    6.000    mass and valenz                                          
   RCORE  =    1.520    outmost cutoff radius                                                       
   RWIGS  =    1.550; RWIGS  =     .820    wigner-seitz radius (au A)                               
   ENMAX  =  400.000; ENMIN  =  300.000 eV                                                          
   ICORE  =        2    local potential                                                             
   LCOR   =        T    correct aug charges                                                         
   LPAW   =        T    paw PP                                                                      
   EAUG   =  605.392                                                                                
   DEXC   =     .000                                                                                
   RMAX   =    2.264    core radius for proj-oper                                                   
   RAUG   =    1.300    factor for augmentation sphere                                              
   RDEP   =    1.550    radius for radial grids                                                     
   QCUT   =   -5.520; QGAM   =   11.041    optimization parameters                                  
                                                                                                    
   Description                                                                                      
     l     E      TYP  RCUT    TYP  RCUT                                                            
     0   .000     23  1.200                                                                         
     0  -.700     23  1.200                                                                         
     1   .000     23  1.520                                                                         
     1   .600     23  1.520                                                                         
     2   .000      7  1.500                                                                         
  local pseudopotential read in
  atomic valenz-charges read in
  non local Contribution for L=           0  read in
    real space projection operators read in
  non local Contribution for L=           0  read in
    real space projection operators read in
  non local Contribution for L=           1  read in
    real space projection operators read in
  non local Contribution for L=           1  read in
    real space projection operators read in
    PAW grid and wavefunctions read in
 
   number of l-projection  operators is LMAX  =           4
   number of lm-projection operators is LMMAX =           8
 
 Optimization of the real space projectors (new method)

 maximal supplied QI-value         = 18.33
 optimisation between [QCUT,QGAM] = [ 11.55, 23.28] = [ 37.34,151.76] Ry 
 Optimized for a Real-space Cutoff    1.32 Angstroem

   l    n(q)    QCUT    max X(q) W(low)/X(q) W(high)/X(q)  e(spline) 
   0      9    11.548     5.519    0.68E-05    0.20E-05    0.27E-07
   0      9    11.548    24.272    0.42E-04    0.24E-04    0.63E-07
   1      9    11.548     4.148    0.83E-04    0.77E-04    0.38E-06
   1      9    11.548    11.842    0.23E-03    0.17E-03    0.54E-06
 Optimization of the real space projectors (new method)

 maximal supplied QI-value         = 16.25
 optimisation between [QCUT,QGAM] = [ 11.54, 23.24] = [ 37.28,151.24] Ry 
 Optimized for a Real-space Cutoff    1.53 Angstroem

   l    n(q)    QCUT    max X(q) W(low)/X(q) W(high)/X(q)  e(spline) 
   2     10    11.539     4.378    0.86E-05    0.15E-04    0.46E-07
   2     10    11.539    23.237    0.11E-03    0.14E-03    0.22E-06
   0     11    11.539    17.641    0.19E-04    0.14E-05    0.18E-07
   0     11    11.539    50.908    0.43E-04    0.16E-04    0.30E-06
   1     10    11.539     6.148    0.11E-04    0.38E-05    0.26E-07
   1     10    11.539     8.345    0.44E-04    0.25E-04    0.11E-06
 Optimization of the real space projectors (new method)

 maximal supplied QI-value         = 19.84
 optimisation between [QCUT,QGAM] = [ 11.51, 23.22] = [ 37.09,150.92] Ry 
 Optimized for a Real-space Cutoff    1.21 Angstroem

   l    n(q)    QCUT    max X(q) W(low)/X(q) W(high)/X(q)  e(spline) 
   0      8    11.508     6.651    0.19E-04    0.31E-05    0.49E-08
   0      8    11.508    90.285    0.95E-04    0.17E-03    0.51E-07
   1      8    11.508     4.328    0.14E-04    0.32E-04    0.22E-07
   1      8    11.508    54.583    0.16E-03    0.71E-04    0.89E-07
 Optimization of the real space projectors (new method)

 maximal supplied QI-value         = 24.76
 optimisation between [QCUT,QGAM] = [ 11.64, 23.27] = [ 37.91,151.63] Ry 
 Optimized for a Real-space Cutoff    1.08 Angstroem

   l    n(q)    QCUT    max X(q) W(low)/X(q) W(high)/X(q)  e(spline) 
   0      7    11.635     4.192    0.54E-04    0.80E-04    0.26E-07
   0      7    11.635     8.473    0.70E-04    0.40E-03    0.21E-06
   1      7    11.635     2.474    0.39E-04    0.14E-03    0.23E-07
   1      7    11.635     3.912    0.25E-03    0.37E-03    0.22E-06
 PAW_PBE Li_sv 23Jan2001                :
 energy of atom  1       EATOM= -202.7858
 kinetic energy error for atom=    0.0020 (will be added to EATOM!!)
 PAW_PBE Fe 06Sep2000                   :
 energy of atom  2       EATOM= -594.4687
 kinetic energy error for atom=    0.0026 (will be added to EATOM!!)
  PAW_PBE P 17Jan2003                   :
 energy of atom  3       EATOM= -176.0430
 kinetic energy error for atom=    0.0011 (will be added to EATOM!!)
 PAW_PBE O 08Apr2002                    :
 energy of atom  4       EATOM= -432.3788
 kinetic energy error for atom=    0.0208 (will be added to EATOM!!)
 
 
 POSCAR: Li4 Fe4 P4 O16
  positions in direct lattice
  velocities in cartesian coordinates
 exchange correlation table for  LEXCH =        8
   RHO(1)=    0.500       N(1)  =     2000
   RHO(2)=  100.500       N(2)  =     4000
 


--------------------------------------------------------------------------------------------------------


 ion  position               nearest neighbor table
   1  0.000  0.000  0.000-  68 2.11  89 2.11  51 2.20  62 2.20  73 2.22  60 2.22  33 2.69  48 2.69

   2  0.000  0.500  0.000-  67 2.11  90 2.11  52 2.20  61 2.20  74 2.22  59 2.22  34 2.69  47 2.69

   3  0.500  0.000  0.000-  66 2.11  91 2.11  49 2.20  64 2.20  75 2.22  58 2.22  35 2.69  46 2.69

   4  0.500  0.500  0.000-  65 2.11  92 2.11  50 2.20  63 2.20  76 2.22  57 2.22  36 2.69  45 2.69

   5  0.250  0.250  0.500-  93 2.11  97 2.11  69 2.20 101 2.20  81 2.22  77 2.22  37 2.69  41 2.69

   6  0.250  0.750  0.500-  94 2.11  98 2.11  70 2.20 102 2.20  82 2.22  78 2.22  38 2.69  42 2.69

   7  0.750  0.250  0.500-  95 2.11  99 2.11  71 2.20 103 2.20  83 2.22  79 2.22  39 2.69  43 2.69

   8  0.750  0.750  0.500-  96 2.11 100 2.11  72 2.20 104 2.20  84 2.22  80 2.22  40 2.69  44 2.69

   9  0.250  0.000  0.500-  93 2.11  98 2.11  70 2.20 101 2.20  86 2.22 105 2.22  38 2.69  41 2.69

  10  0.250  0.500  0.500-  94 2.11  97 2.11  69 2.20 102 2.20  85 2.22 106 2.22  37 2.69  42 2.69

  11  0.750  0.000  0.500-  95 2.11 100 2.11  72 2.20 103 2.20  88 2.22 107 2.22  40 2.69  43 2.69

  12  0.750  0.500  0.500-  96 2.11  99 2.11  71 2.20 104 2.20  87 2.22 108 2.22  39 2.69  44 2.69

  13  0.000  0.250  0.000-  67 2.11  89 2.11  51 2.20  61 2.20  55 2.22 109 2.22  33 2.69  47 2.69

  14  0.000  0.750  0.000-  68 2.11  90 2.11  52 2.20  62 2.20  56 2.22 110 2.22  34 2.69  48 2.69

  15  0.500  0.250  0.000-  65 2.11  91 2.11  49 2.20  63 2.20  53 2.22 111 2.22  35 2.69  45 2.69

  16  0.500  0.750  0.000-  66 2.11  92 2.11  50 2.20  64 2.20  54 2.22 112 2.22  36 2.69  46 2.69

  17  0.263  0.125  0.781-  53 2.09  58 2.09  89 2.14 101 2.22  77 2.27 105 2.27  41 2.87
  18  0.263  0.625  0.781-  54 2.09  57 2.09  90 2.14 102 2.22  78 2.27 106 2.27  42 2.87
  19  0.763  0.125  0.781-  55 2.09  60 2.09  91 2.14 103 2.22  79 2.27 107 2.27  43 2.87
  20  0.763  0.625  0.781-  56 2.09  59 2.09  92 2.14 104 2.22  80 2.27 108 2.27  44 2.87
  21  0.013  0.375  0.719-  77 2.09 106 2.09  99 2.14  61 2.22  55 2.27  59 2.27  47 2.87
  22  0.013  0.875  0.719-  78 2.09 105 2.09 100 2.14  62 2.22  56 2.27  60 2.27  48 2.87
  23  0.513  0.375  0.719-  79 2.09 108 2.09  97 2.14  63 2.22  53 2.27  57 2.27  45 2.87
  24  0.513  0.875  0.719-  80 2.09 107 2.09  98 2.14  64 2.22  54 2.27  58 2.27  46 2.87
  25  0.487  0.125  0.281-  81 2.09  86 2.09  95 2.14  49 2.22  75 2.27 111 2.27  35 2.87
  26  0.487  0.625  0.281-  82 2.09  85 2.09  96 2.14  50 2.22  76 2.27 112 2.27  36 2.87
  27  0.987  0.125  0.281-  83 2.09  88 2.09  93 2.14  51 2.22  73 2.27 109 2.27  33 2.87
  28  0.987  0.625  0.281-  84 2.09  87 2.09  94 2.14  52 2.22  74 2.27 110 2.27  34 2.87
  29  0.237  0.375  0.219-  74 2.09 109 2.09  65 2.14  69 2.22  85 2.27  81 2.27  37 2.87
  30  0.237  0.875  0.219-  73 2.09 110 2.09  66 2.14  70 2.22  86 2.27  82 2.27  38 2.87
  31  0.737  0.375  0.219-  76 2.09 111 2.09  67 2.14  71 2.22  87 2.27  83 2.27  39 2.87
  32  0.737  0.875  0.219-  75 2.09 112 2.09  68 2.14  72 2.22  88 2.27  84 2.27  40 2.87
  33  0.209  0.125  0.095-  49 1.54  89 1.55  73 1.57 109 1.57   1 2.69  13 2.69  27 2.87
  34  0.209  0.625  0.095-  50 1.54  90 1.55  74 1.57 110 1.57   2 2.69  14 2.69  28 2.87
  35  0.709  0.125  0.095-  51 1.54  91 1.55  75 1.57 111 1.57   3 2.69  15 2.69  25 2.87
  36  0.709  0.625  0.095-  52 1.54  92 1.55  76 1.57 112 1.57   4 2.69  16 2.69  26 2.87
  37  0.459  0.375  0.405-  71 1.54  97 1.55  85 1.57  81 1.57   5 2.69  10 2.69  29 2.87
  38  0.459  0.875  0.405-  72 1.54  98 1.55  86 1.57  82 1.57   6 2.69   9 2.69  30 2.87
  39  0.959  0.375  0.405-  69 1.54  99 1.55  87 1.57  83 1.57   7 2.69  12 2.69  31 2.87
  40  0.959  0.875  0.405-  70 1.54 100 1.55  88 1.57  84 1.57   8 2.69  11 2.69  32 2.87
  41  0.041  0.125  0.595- 103 1.54  93 1.55  77 1.57 105 1.57   5 2.69   9 2.69  17 2.87
  42  0.041  0.625  0.595- 104 1.54  94 1.55  78 1.57 106 1.57   6 2.69  10 2.69  18 2.87
  43  0.541  0.125  0.595- 101 1.54  95 1.55  79 1.57 107 1.57   7 2.69  11 2.69  19 2.87
  44  0.541  0.625  0.595- 102 1.54  96 1.55  80 1.57 108 1.57   8 2.69  12 2.69  20 2.87
  45  0.291  0.375  0.905-  61 1.54  65 1.55  53 1.57  57 1.57   4 2.69  15 2.69  23 2.87
  46  0.291  0.875  0.905-  62 1.54  66 1.55  54 1.57  58 1.57   3 2.69  16 2.69  24 2.87
  47  0.791  0.375  0.905-  63 1.54  67 1.55  55 1.57  59 1.57   2 2.69  13 2.69  21 2.87
  48  0.791  0.875  0.905-  64 1.54  68 1.55  56 1.57  60 1.57   1 2.69  14 2.69  22 2.87
  49  0.371  0.125  0.097-  33 1.54  15 2.20   3 2.20  25 2.22
  50  0.371  0.625  0.097-  34 1.54  16 2.20   4 2.20  26 2.22
  51  0.871  0.125  0.097-  35 1.54  13 2.20   1 2.20  27 2.22
  52  0.871  0.625  0.097-  36 1.54  14 2.20   2 2.20  28 2.22
  53  0.357  0.273  0.834-  45 1.57  17 2.09  15 2.22  23 2.27
  54  0.357  0.773  0.834-  46 1.57  18 2.09  16 2.22  24 2.27
  55  0.857  0.273  0.834-  47 1.57  19 2.09  13 2.22  21 2.27
  56  0.857  0.773  0.834-  48 1.57  20 2.09  14 2.22  22 2.27
  57  0.357  0.477  0.834-  45 1.57  18 2.09   4 2.22  23 2.27
  58  0.357  0.977  0.834-  46 1.57  17 2.09   3 2.22  24 2.27
  59  0.857  0.477  0.834-  47 1.57  20 2.09   2 2.22  21 2.27
  60  0.857  0.977  0.834-  48 1.57  19 2.09   1 2.22  22 2.27
  61  0.129  0.375  0.903-  45 1.54  13 2.20   2 2.20  21 2.22
  62  0.129  0.875  0.903-  46 1.54  14 2.20   1 2.20  22 2.22
  63  0.629  0.375  0.903-  47 1.54  15 2.20   4 2.20  23 2.22
  64  0.629  0.875  0.903-  48 1.54  16 2.20   3 2.20  24 2.22
  65  0.354  0.375  0.043-  45 1.55  15 2.11   4 2.11  29 2.14
  66  0.354  0.875  0.043-  46 1.55  16 2.11   3 2.11  30 2.14
  67  0.854  0.375  0.043-  47 1.55  13 2.11   2 2.11  31 2.14
  68  0.854  0.875  0.043-  48 1.55  14 2.11   1 2.11  32 2.14
  69  0.121  0.375  0.403-  39 1.54  10 2.20   5 2.20  29 2.22
  70  0.121  0.875  0.403-  40 1.54   9 2.20   6 2.20  30 2.22
  71  0.621  0.375  0.403-  37 1.54  12 2.20   7 2.20  31 2.22
  72  0.621  0.875  0.403-  38 1.54  11 2.20   8 2.20  32 2.22
  73  0.143  0.023  0.166-  33 1.57  30 2.09   1 2.22  27 2.27
  74  0.143  0.523  0.166-  34 1.57  29 2.09   2 2.22  28 2.27
  75  0.643  0.023  0.166-  35 1.57  32 2.09   3 2.22  25 2.27
  76  0.643  0.523  0.166-  36 1.57  31 2.09   4 2.22  26 2.27
  77  0.107  0.227  0.666-  41 1.57  21 2.09   5 2.22  17 2.27
  78  0.107  0.727  0.666-  42 1.57  22 2.09   6 2.22  18 2.27
  79  0.607  0.227  0.666-  43 1.57  23 2.09   7 2.22  19 2.27
  80  0.607  0.727  0.666-  44 1.57  24 2.09   8 2.22  20 2.27
  81  0.393  0.273  0.334-  37 1.57  25 2.09   5 2.22  29 2.27
  82  0.393  0.773  0.334-  38 1.57  26 2.09   6 2.22  30 2.27
  83  0.893  0.273  0.334-  39 1.57  27 2.09   7 2.22  31 2.27
  84  0.893  0.773  0.334-  40 1.57  28 2.09   8 2.22  32 2.27
  85  0.393  0.477  0.334-  37 1.57  26 2.09  10 2.22  29 2.27
  86  0.393  0.977  0.334-  38 1.57  25 2.09   9 2.22  30 2.27
  87  0.893  0.477  0.334-  39 1.57  28 2.09  12 2.22  31 2.27
  88  0.893  0.977  0.334-  40 1.57  27 2.09  11 2.22  32 2.27
  89  0.146  0.125  0.957-  33 1.55  13 2.11   1 2.11  17 2.14
  90  0.146  0.625  0.957-  34 1.55  14 2.11   2 2.11  18 2.14
  91  0.646  0.125  0.957-  35 1.55  15 2.11   3 2.11  19 2.14
  92  0.646  0.625  0.957-  36 1.55  16 2.11   4 2.11  20 2.14
  93  0.104  0.125  0.457-  41 1.55   9 2.11   5 2.11  27 2.14
  94  0.104  0.625  0.457-  42 1.55  10 2.11   6 2.11  28 2.14
  95  0.604  0.125  0.457-  43 1.55  11 2.11   7 2.11  25 2.14
  96  0.604  0.625  0.457-  44 1.55  12 2.11   8 2.11  26 2.14
  97  0.396  0.375  0.543-  37 1.55  10 2.11   5 2.11  23 2.14
  98  0.396  0.875  0.543-  38 1.55   9 2.11   6 2.11  24 2.14
  99  0.896  0.375  0.543-  39 1.55  12 2.11   7 2.11  21 2.14
 100  0.896  0.875  0.543-  40 1.55  11 2.11   8 2.11  22 2.14
 101  0.379  0.125  0.597-  43 1.54   9 2.20   5 2.20  17 2.22
 102  0.379  0.625  0.597-  44 1.54  10 2.20   6 2.20  18 2.22
 103  0.879  0.125  0.597-  41 1.54  11 2.20   7 2.20  19 2.22
 104  0.879  0.625  0.597-  42 1.54  12 2.20   8 2.20  20 2.22
 105  0.107  0.023  0.666-  41 1.57  22 2.09   9 2.22  17 2.27
 106  0.107  0.523  0.666-  42 1.57  21 2.09  10 2.22  18 2.27
 107  0.607  0.023  0.666-  43 1.57  24 2.09  11 2.22  19 2.27
 108  0.607  0.523  0.666-  44 1.57  23 2.09  12 2.22  20 2.27
 109  0.143  0.227  0.166-  33 1.57  29 2.09  13 2.22  27 2.27
 110  0.143  0.727  0.166-  34 1.57  30 2.09  14 2.22  28 2.27
 111  0.643  0.227  0.166-  35 1.57  31 2.09  15 2.22  25 2.27
 112  0.643  0.727  0.166-  36 1.57  32 2.09  16 2.22  26 2.27
 
  LATTYP: Found a simple orthorhombic cell.
 ALAT       =     9.5093176167
 B/A-ratio  =     1.0961933240
 C/A-ratio  =     1.2782009111
  
  Lattice vectors:
  
 A1 = (  -9.5093176167,   0.0000000000,   0.0000000000)
 A2 = (   0.0000000000,   0.0000000000,  10.4240504871)
 A3 = (   0.0000000000,  12.1548184414,   0.0000000000)


Analysis of symmetry for initial positions (statically):
=====================================================================
 Subroutine PRICEL returns following result:
 
  LATTYP: Found a simple orthorhombic cell.
 ALAT       =     4.7546588083
 B/A-ratio  =     1.2782009111
 C/A-ratio  =     2.1923866480
  
  Lattice vectors:
  
 A1 = (   4.7546588083,   0.0000000000,   0.0000000000)
 A2 = (   0.0000000000,   6.0774092207,   0.0000000000)
 A3 = (   0.0000000000,   0.0000000000,  10.4240504871)
 
   4 primitive cells build up your supercell.
 

 Routine SETGRP: Setting up the symmetry group for a 
 simple orthorhombic supercell.


 Subroutine GETGRP returns: Found  8 space group operations
 (whereof  2 operations were pure point group operations)
 out of a pool of  8 trial point group operations.


The static configuration has the point symmetry S_2 .
 The point group associated with its full space group is D_2h.


Analysis of symmetry for dynamics (positions and initial velocities):
=====================================================================
 Subroutine PRICEL returns following result:
 
  LATTYP: Found a simple orthorhombic cell.
 ALAT       =     4.7546588083
 B/A-ratio  =     1.2782009111
 C/A-ratio  =     2.1923866480
  
  Lattice vectors:
  
 A1 = (   4.7546588083,   0.0000000000,   0.0000000000)
 A2 = (   0.0000000000,   6.0774092207,   0.0000000000)
 A3 = (   0.0000000000,   0.0000000000,  10.4240504871)
 
   4 primitive cells build up your supercell.
 

 Routine SETGRP: Setting up the symmetry group for a 
 simple orthorhombic supercell.


 Subroutine GETGRP returns: Found  8 space group operations
 (whereof  2 operations were pure point group operations)
 out of a pool of  8 trial point group operations.


The dynamic configuration has the point symmetry S_2 .
 The point group associated with its full space group is D_2h.


Analysis of structural, dynamic, and magnetic symmetry:
=====================================================================
 Subroutine PRICEL returns following result:
 
  LATTYP: Found a simple orthorhombic cell.
 ALAT       =     4.7546588083
 B/A-ratio  =     1.2782009111
 C/A-ratio  =     2.1923866480
  
  Lattice vectors:
  
 A1 = (   4.7546588083,   0.0000000000,   0.0000000000)
 A2 = (   0.0000000000,   6.0774092207,   0.0000000000)
 A3 = (   0.0000000000,   0.0000000000,  10.4240504871)
 
   4 primitive cells build up your supercell.
 

 Routine SETGRP: Setting up the symmetry group for a 
 simple orthorhombic supercell.


 Subroutine GETGRP returns: Found  8 space group operations
 (whereof  2 operations were pure point group operations)
 out of a pool of  8 trial point group operations.


The overall configuration has the point symmetry S_2 .
 The point group associated with its full space group is D_2h.


 Subroutine INISYM returns: Found  8 space group operations
 (whereof  2 operations are pure point group operations),
 and found     4 'primitive' translations


----------------------------------------------------------------------------------------

                                     Primitive cell                                     

  volume of cell :     301.2134

  direct lattice vectors                    reciprocal lattice vectors
     4.754658808  0.000000000  0.000000000     0.210320034  0.000000000  0.000000000
     0.000000000  6.077409221  0.000000000     0.000000000  0.164543799  0.000000000
     0.000000000  0.000000000 10.424050487     0.000000000  0.000000000  0.095931999

  length of vectors
     4.754658808  6.077409221 10.424050487     0.210320034  0.164543799  0.095931999

  position of ions in fractional coordinates (direct lattice)
     0.000000000  0.000000000  0.000000000
     0.500000000  0.500000000  0.500000000
     0.500000000  0.000000000  0.500000000
     0.000000000  0.500000000  0.000000000
     0.525093646  0.250000000  0.781126847
     0.025093646  0.750000000  0.718873153
     0.974906354  0.250000000  0.281126847
     0.474906354  0.750000000  0.218873153
     0.418073444  0.250000000  0.094521663
     0.918073444  0.750000000  0.405478337
     0.081926556  0.250000000  0.594521663
     0.581926556  0.750000000  0.905478337
     0.741371682  0.250000000  0.096613306
     0.714628049  0.546799544  0.834208923
     0.714628049  0.953200456  0.834208923
     0.258628318  0.750000000  0.903386694
     0.707189882  0.750000000  0.043219805
     0.241371682  0.750000000  0.403386694
     0.285371951  0.046799544  0.165791077
     0.214628049  0.453200456  0.665791077
     0.785371951  0.546799544  0.334208923
     0.785371951  0.953200456  0.334208923
     0.292810118  0.250000000  0.956780195
     0.207189882  0.250000000  0.456780195
     0.792810118  0.750000000  0.543219805
     0.758628318  0.250000000  0.596613306
     0.214628049  0.046799544  0.665791077
     0.285371951  0.453200456  0.165791077

  ion indices of the primitive-cell ions
   primitive index   ion index
                 1           1
                 2           5
                 3           9
                 4          13
                 5          19
                 6          22
                 7          27
                 8          30
                 9          33
                10          40
                11          41
                12          48
                13          51
                14          56
                15          60
                16          62
                17          68
                18          70
                19          73
                20          77
                21          84
                22          88
                23          89
                24          93
                25         100
                26         103
                27         105
                28         109

----------------------------------------------------------------------------------------

 
 
 KPOINTS: Automatically generated K-points        

Automatic generation of k-mesh.
 Grid dimensions read from file:
 generate k-points for:    8    6    6

 Generating k-lattice:

  Cartesian coordinates                     Fractional coordinates (reciprocal lattice)
     0.013145002  0.000000000  0.000000000     0.125000000  0.000000000  0.000000000
     0.000000000  0.013711983  0.000000000     0.000000000  0.166666667  0.000000000
     0.000000000  0.000000000  0.015988666     0.000000000  0.000000000  0.166666667

  Length of vectors
     0.013145002  0.013711983  0.015988666

  Shift w.r.t. Gamma in fractional coordinates (k-lattice)
     0.000000000  0.000000000  0.000000000

 
 Subroutine IBZKPT returns following result:
 ===========================================
 
 Found     80 irreducible k-points:
 
 Following reciprocal coordinates:
            Coordinates               Weight
  0.000000  0.000000  0.000000      1.000000
  0.125000  0.000000  0.000000      2.000000
  0.250000  0.000000  0.000000      2.000000
  0.375000  0.000000  0.000000      2.000000
  0.500000  0.000000  0.000000      1.000000
  0.000000  0.166667  0.000000      2.000000
  0.125000  0.166667  0.000000      4.000000
  0.250000  0.166667  0.000000      4.000000
  0.375000  0.166667  0.000000      4.000000
  0.500000  0.166667  0.000000      2.000000
  0.000000  0.333333  0.000000      2.000000
  0.125000  0.333333  0.000000      4.000000
  0.250000  0.333333  0.000000      4.000000
  0.375000  0.333333  0.000000      4.000000
  0.500000  0.333333  0.000000      2.000000
  0.000000  0.500000  0.000000      1.000000
  0.125000  0.500000  0.000000      2.000000
  0.250000  0.500000  0.000000      2.000000
  0.375000  0.500000  0.000000      2.000000
  0.500000  0.500000  0.000000      1.000000
  0.000000  0.000000  0.166667      2.000000
  0.125000  0.000000  0.166667      4.000000
  0.250000  0.000000  0.166667      4.000000
  0.375000  0.000000  0.166667      4.000000
  0.500000  0.000000  0.166667      2.000000
  0.000000  0.166667  0.166667      4.000000
  0.125000  0.166667  0.166667      8.000000
  0.250000  0.166667  0.166667      8.000000
  0.375000  0.166667  0.166667      8.000000
  0.500000  0.166667  0.166667      4.000000
  0.000000  0.333333  0.166667      4.000000
  0.125000  0.333333  0.166667      8.000000
  0.250000  0.333333  0.166667      8.000000
  0.375000  0.333333  0.166667      8.000000
  0.500000  0.333333  0.166667      4.000000
  0.000000  0.500000  0.166667      2.000000
  0.125000  0.500000  0.166667      4.000000
  0.250000  0.500000  0.166667      4.000000
  0.375000  0.500000  0.166667      4.000000
  0.500000  0.500000  0.166667      2.000000
  0.000000  0.000000  0.333333      2.000000
  0.125000  0.000000  0.333333      4.000000
  0.250000  0.000000  0.333333      4.000000
  0.375000  0.000000  0.333333      4.000000
  0.500000  0.000000  0.333333      2.000000
  0.000000  0.166667  0.333333      4.000000
  0.125000  0.166667  0.333333      8.000000
  0.250000  0.166667  0.333333      8.000000
  0.375000  0.166667  0.333333      8.000000
  0.500000  0.166667  0.333333      4.000000
  0.000000  0.333333  0.333333      4.000000
  0.125000  0.333333  0.333333      8.000000
  0.250000  0.333333  0.333333      8.000000
  0.375000  0.333333  0.333333      8.000000
  0.500000  0.333333  0.333333      4.000000
  0.000000  0.500000  0.333333      2.000000
  0.125000  0.500000  0.333333      4.000000
  0.250000  0.500000  0.333333      4.000000
  0.375000  0.500000  0.333333      4.000000
  0.500000  0.500000  0.333333      2.000000
  0.000000  0.000000  0.500000      1.000000
  0.125000  0.000000  0.500000      2.000000
  0.250000  0.000000  0.500000      2.000000
  0.375000  0.000000  0.500000      2.000000
  0.500000  0.000000  0.500000      1.000000
  0.000000  0.166667  0.500000      2.000000
  0.125000  0.166667  0.500000      4.000000
  0.250000  0.166667  0.500000      4.000000
  0.375000  0.166667  0.500000      4.000000
  0.500000  0.166667  0.500000      2.000000
  0.000000  0.333333  0.500000      2.000000
  0.125000  0.333333  0.500000      4.000000
  0.250000  0.333333  0.500000      4.000000
  0.375000  0.333333  0.500000      4.000000
  0.500000  0.333333  0.500000      2.000000
  0.000000  0.500000  0.500000      1.000000
  0.125000  0.500000  0.500000      2.000000
  0.250000  0.500000  0.500000      2.000000
  0.375000  0.500000  0.500000      2.000000
  0.500000  0.500000  0.500000      1.000000
 
 Following cartesian coordinates:
            Coordinates               Weight
  0.000000  0.000000  0.000000      1.000000
  0.013145  0.000000  0.000000      2.000000
  0.026290  0.000000  0.000000      2.000000
  0.039435  0.000000  0.000000      2.000000
  0.052580  0.000000  0.000000      1.000000
  0.000000  0.013712  0.000000      2.000000
  0.013145  0.013712  0.000000      4.000000
  0.026290  0.013712  0.000000      4.000000
  0.039435  0.013712  0.000000      4.000000
  0.052580  0.013712  0.000000      2.000000
  0.000000  0.027424  0.000000      2.000000
  0.013145  0.027424  0.000000      4.000000
  0.026290  0.027424  0.000000      4.000000
  0.039435  0.027424  0.000000      4.000000
  0.052580  0.027424  0.000000      2.000000
  0.000000  0.041136  0.000000      1.000000
  0.013145  0.041136  0.000000      2.000000
  0.026290  0.041136  0.000000      2.000000
  0.039435  0.041136  0.000000      2.000000
  0.052580  0.041136  0.000000      1.000000
  0.000000  0.000000  0.015989      2.000000
  0.013145  0.000000  0.015989      4.000000
  0.026290  0.000000  0.015989      4.000000
  0.039435  0.000000  0.015989      4.000000
  0.052580  0.000000  0.015989      2.000000
  0.000000  0.013712  0.015989      4.000000
  0.013145  0.013712  0.015989      8.000000
  0.026290  0.013712  0.015989      8.000000
  0.039435  0.013712  0.015989      8.000000
  0.052580  0.013712  0.015989      4.000000
  0.000000  0.027424  0.015989      4.000000
  0.013145  0.027424  0.015989      8.000000
  0.026290  0.027424  0.015989      8.000000
  0.039435  0.027424  0.015989      8.000000
  0.052580  0.027424  0.015989      4.000000
  0.000000  0.041136  0.015989      2.000000
  0.013145  0.041136  0.015989      4.000000
  0.026290  0.041136  0.015989      4.000000
  0.039435  0.041136  0.015989      4.000000
  0.052580  0.041136  0.015989      2.000000
  0.000000  0.000000  0.031977      2.000000
  0.013145  0.000000  0.031977      4.000000
  0.026290  0.000000  0.031977      4.000000
  0.039435  0.000000  0.031977      4.000000
  0.052580  0.000000  0.031977      2.000000
  0.000000  0.013712  0.031977      4.000000
  0.013145  0.013712  0.031977      8.000000
  0.026290  0.013712  0.031977      8.000000
  0.039435  0.013712  0.031977      8.000000
  0.052580  0.013712  0.031977      4.000000
  0.000000  0.027424  0.031977      4.000000
  0.013145  0.027424  0.031977      8.000000
  0.026290  0.027424  0.031977      8.000000
  0.039435  0.027424  0.031977      8.000000
  0.052580  0.027424  0.031977      4.000000
  0.000000  0.041136  0.031977      2.000000
  0.013145  0.041136  0.031977      4.000000
  0.026290  0.041136  0.031977      4.000000
  0.039435  0.041136  0.031977      4.000000
  0.052580  0.041136  0.031977      2.000000
  0.000000  0.000000  0.047966      1.000000
  0.013145  0.000000  0.047966      2.000000
  0.026290  0.000000  0.047966      2.000000
  0.039435  0.000000  0.047966      2.000000
  0.052580  0.000000  0.047966      1.000000
  0.000000  0.013712  0.047966      2.000000
  0.013145  0.013712  0.047966      4.000000
  0.026290  0.013712  0.047966      4.000000
  0.039435  0.013712  0.047966      4.000000
  0.052580  0.013712  0.047966      2.000000
  0.000000  0.027424  0.047966      2.000000
  0.013145  0.027424  0.047966      4.000000
  0.026290  0.027424  0.047966      4.000000
  0.039435  0.027424  0.047966      4.000000
  0.052580  0.027424  0.047966      2.000000
  0.000000  0.041136  0.047966      1.000000
  0.013145  0.041136  0.047966      2.000000
  0.026290  0.041136  0.047966      2.000000
  0.039435  0.041136  0.047966      2.000000
  0.052580  0.041136  0.047966      1.000000
 


--------------------------------------------------------------------------------------------------------




 Dimension of arrays:
   k-points           NKPTS =     80   k-points in BZ     NKDIM =     80   number of bands    NBANDS=    448
   number of dos      NEDOS =   5000   number of ions     NIONS =    112
   non local maximal  LDIM  =      6   non local SUM 2l+1 LMDIM =     18
   total plane-waves  NPLWV = 518400
   max r-space proj   IRMAX =   6553   max aug-charges    IRDMAX=  15524
   dimension x,y,z NGX =    72 NGY =   90 NGZ =   80
   dimension x,y,z NGXF=   144 NGYF=  180 NGZF=  160
   support grid    NGXF=   144 NGYF=  180 NGZF=  160
   ions per type =              16  16  16  64
   NGX,Y,Z   is equivalent  to a cutoff of  12.59, 12.31, 12.76 a.u.
   NGXF,Y,Z  is equivalent  to a cutoff of  25.17, 24.62, 25.52 a.u.

 SYSTEM =  DOS                                     
 POSCAR =  Li4 Fe4 P4 O16                          

 Startparameter for this run:
   NWRITE =      2    write-flag & timer
   PREC   = accura    normal or accurate (medium, high low for compatibility)
   ISTART =      0    job   : 0-new  1-cont  2-samecut
   ICHARG =     11    charge: 1-file 2-atom 10-const
   ISPIN  =      2    spin polarized calculation?
   LNONCOLLINEAR =      F non collinear calculations
   LSORBIT =      F    spin-orbit coupling
   INIWAV =      1    electr: 0-lowe 1-rand  2-diag
   LASPH  =      F    aspherical Exc in radial PAW
 Electronic Relaxation 1
   ENCUT  =  520.0 eV  38.22 Ry    6.18 a.u.  17.68 22.60 19.38*2*pi/ulx,y,z
   ENINI  =  520.0     initial cutoff
   ENAUG  =  605.4 eV  augmentation charge cutoff
   NELM   =    100;   NELMIN=  2; NELMDL=  0     # of ELM steps 
   EDIFF  = 0.1E-04   stopping-criterion for ELM
   LREAL  =      T    real-space projection
   NLSPLINE    = F    spline interpolate recip. space projectors
   LCOMPAT=      F    compatible to vasp.4.4
   GGA_COMPAT  = T    GGA compatible to vasp.4.4-vasp.4.6
   LMAXPAW     = -100 max onsite density
   LMAXMIX     =    4 max onsite mixed and CHGCAR
   VOSKOWN=      0    Vosko Wilk Nusair interpolation
   ROPT   =   -0.00025  -0.00025  -0.00025  -0.00025
 Ionic relaxation
   EDIFFG = -.1E-01   stopping-criterion for IOM
   NSW    =      0    number of steps for IOM
   NBLOCK =      1;   KBLOCK =      1    inner block; outer block 
   IBRION =     -1    ionic relax: 0-MD 1-quasi-New 2-CG
   NFREE  =      0    steps in history (QN), initial steepest desc. (CG)
   ISIF   =      2    stress and relaxation
   IWAVPR =     10    prediction:  0-non 1-charg 2-wave 3-comb
   ISYM   =      2    0-nonsym 1-usesym 2-fastsym
   LCORR  =      T    Harris-Foulkes like correction to forces

   POTIM  = 0.0000    time-step for ionic-motion
   TEIN   =    0.0    initial temperature
   TEBEG  =    0.0;   TEEND  =   0.0 temperature during run
   SMASS  =  -3.00    Nose mass-parameter (am)
   estimated Nose-frequenzy (Omega)   =  0.10E-29 period in steps = 0.00E+00 mass=  -0.207E-26a.u.
   SCALEE = 1.0000    scale energy and forces
   NPACO  =    256;   APACO  = 10.0  distance and # of slots for P.C.
   PSTRESS=    0.0 pullay stress

  Mass of Ions in am
   POMASS =   7.01 55.85 30.97 16.00
  Ionic Valenz
   ZVAL   =   3.00  8.00  5.00  6.00
  Atomic Wigner-Seitz radii
   RWIGS  =  -1.00 -1.00 -1.00 -1.00
  virtual crystal weights 
   VCA    =   1.00  1.00  1.00  1.00
   NELECT =     640.0000    total number of electrons
   NUPDOWN=      -1.0000    fix difference up-down

 DOS related values:
   EMIN   =  10.00;   EMAX   =-10.00  energy-range for DOS
   EFERMI =   0.00
   ISMEAR =     0;   SIGMA  =   0.05  broadening in eV -4-tet -1-fermi 0-gaus

 Electronic relaxation 2 (details)
   IALGO  =     38    algorithm
   LDIAG  =      T    sub-space diagonalisation (order eigenvalues)
   LSUBROT=      F    optimize rotation matrix (better conditioning)
   TURBO    =      0    0=normal 1=particle mesh
   IRESTART =      0    0=no restart 2=restart with 2 vectors
   NREBOOT  =      0    no. of reboots
   NMIN     =      0    reboot dimension
   EREF     =   0.00    reference energy to select bands
   IMIX   =      4    mixing-type and parameters
     AMIX     =   0.40;   BMIX     =  1.00
     AMIX_MAG =   1.60;   BMIX_MAG =  1.00
     AMIN     =   0.10
     WC   =   100.;   INIMIX=   1;  MIXPRE=   1;  MAXMIX= -45

 Intra band minimization:
   WEIMIN = 0.0000     energy-eigenvalue tresh-hold
   EBREAK =  0.56E-08  absolut break condition
   DEPER  =   0.30     relativ break condition  

   TIME   =   0.40     timestep for ELM

  volume/ion in A,a.u.               =      10.76        72.60
  Fermi-wavevector in a.u.,A,eV,Ry     =   1.325837  2.505468 23.916906  1.757843
  Thomas-Fermi vector in A             =   2.455268
 
 Write flags
   LWAVE        =      F    write WAVECAR
   LDOWNSAMPLE  =      F    k-point downsampling of WAVECAR
   LCHARG       =      F    write CHGCAR
   LVTOT        =      F    write LOCPOT, total local potential
   LVHAR        =      F    write LOCPOT, Hartree potential only
   LELF         =      F    write electronic localiz. function (ELF)
   LORBIT       =     11    0 simple, 1 ext, 2 COOP (PROOUT), +10 PAW based schemes


 Dipole corrections
   LMONO  =      F    monopole corrections only (constant potential shift)
   LDIPOL =      F    correct potential (dipole corrections)
   IDIPOL =      0    1-x, 2-y, 3-z, 4-all directions 
   EPSILON=  1.0000000 bulk dielectric constant

 LDA+U is selected, type is set to LDAUTYPE =  2
   angular momentum for each species LDAUL =    -1    2   -1   -1
   U (eV)           for each species LDAUU =   0.0  5.0  0.0  0.0
   J (eV)           for each species LDAUJ =   0.0  0.0  0.0  0.0
 Exchange correlation treatment:
   GGA     =    PE    GGA type
   LEXCH   =     8    internal setting for exchange type
   LIBXC   =     F    Libxc                    
   VOSKOWN =     0    Vosko Wilk Nusair interpolation
   LHFCALC =     F    Hartree Fock is set to
   LHFONE  =     F    Hartree Fock one center treatment
   AEXX    =    0.0000 exact exchange contribution

 Linear response parameters
   LEPSILON=     F    determine dielectric tensor
   LRPA    =     F    only Hartree local field effects (RPA)
   LNABLA  =     F    use nabla operator in PAW spheres
   LVEL    =     F    velocity operator in full k-point grid
   CSHIFT  =0.1000    complex shift for real part using Kramers Kronig
   OMEGAMAX=  -1.0    maximum frequency
   DEG_THRESHOLD= 0.2000000E-02 threshold for treating states as degnerate
   RTIME   =   -0.100 relaxation time in fs
  (WPLASMAI=    0.000 imaginary part of plasma frequency in eV, 0.658/RTIME)
   DFIELD  = 0.0000000 0.0000000 0.0000000 field for delta impulse in time
 
  Optional k-point grid parameters
   LKPOINTS_OPT  =     F    use optional k-point grid
   KPOINTS_OPT_MODE=     1    mode for optional k-point grid
 
 Orbital magnetization related:
   ORBITALMAG=     F  switch on orbital magnetization
   LCHIMAG   =     F  perturbation theory with respect to B field
   DQ        =  0.001000  dq finite difference perturbation B field
   LLRAUG    =     F  two centre corrections for induced B field



--------------------------------------------------------------------------------------------------------


 Static calculation
 charge density and potential remain constant during run
 spin polarized calculation
 Variant of blocked Davidson
 Davidson routine will perform the subspace rotation
 perform sub-space diagonalisation
    after iterative eigenvector-optimisation
 no mixing
 using additional bands          128
 real space projection scheme for non local part
 use partial core corrections
 calculate Harris-corrections to forces 
   (improved forces if not selfconsistent)
 use gradient corrections 
 WARNING: stress and forces are not correct
  (second derivative of E(xc) not defined)
 use of overlap-Matrix (Vanderbilt PP)
 Gauss-broadening in eV      SIGMA  =   0.05


--------------------------------------------------------------------------------------------------------


  energy-cutoff  :      520.00
  volume of cell :     1204.85
      direct lattice vectors                 reciprocal lattice vectors
     9.509317617  0.000000000  0.000000000     0.105160017  0.000000000  0.000000000
     0.000000000 12.154818441  0.000000000     0.000000000  0.082271899  0.000000000
     0.000000000  0.000000000 10.424050487     0.000000000  0.000000000  0.095931999

  length of vectors
     9.509317617 12.154818441 10.424050487     0.105160017  0.082271899  0.095931999


 
 k-points in units of 2pi/SCALE and weight: Automatically generated K-points        
   0.00000000  0.00000000  0.00000000       0.003
   0.01314500  0.00000000  0.00000000       0.007
   0.02629000  0.00000000  0.00000000       0.007
   0.03943501  0.00000000  0.00000000       0.007
   0.05258001  0.00000000  0.00000000       0.003
   0.00000000  0.01371198  0.00000000       0.007
   0.01314500  0.01371198  0.00000000       0.014
   0.02629000  0.01371198  0.00000000       0.014
   0.03943501  0.01371198  0.00000000       0.014
   0.05258001  0.01371198  0.00000000       0.007
   0.00000000  0.02742397  0.00000000       0.007
   0.01314500  0.02742397  0.00000000       0.014
   0.02629000  0.02742397  0.00000000       0.014
   0.03943501  0.02742397  0.00000000       0.014
   0.05258001  0.02742397  0.00000000       0.007
   0.00000000  0.04113595  0.00000000       0.003
   0.01314500  0.04113595  0.00000000       0.007
   0.02629000  0.04113595  0.00000000       0.007
   0.03943501  0.04113595  0.00000000       0.007
   0.05258001  0.04113595  0.00000000       0.003
   0.00000000  0.00000000  0.01598867       0.007
   0.01314500  0.00000000  0.01598867       0.014
   0.02629000  0.00000000  0.01598867       0.014
   0.03943501  0.00000000  0.01598867       0.014
   0.05258001  0.00000000  0.01598867       0.007
   0.00000000  0.01371198  0.01598867       0.014
   0.01314500  0.01371198  0.01598867       0.028
   0.02629000  0.01371198  0.01598867       0.028
   0.03943501  0.01371198  0.01598867       0.028
   0.05258001  0.01371198  0.01598867       0.014
   0.00000000  0.02742397  0.01598867       0.014
   0.01314500  0.02742397  0.01598867       0.028
   0.02629000  0.02742397  0.01598867       0.028
   0.03943501  0.02742397  0.01598867       0.028
   0.05258001  0.02742397  0.01598867       0.014
   0.00000000  0.04113595  0.01598867       0.007
   0.01314500  0.04113595  0.01598867       0.014
   0.02629000  0.04113595  0.01598867       0.014
   0.03943501  0.04113595  0.01598867       0.014
   0.05258001  0.04113595  0.01598867       0.007
   0.00000000  0.00000000  0.03197733       0.007
   0.01314500  0.00000000  0.03197733       0.014
   0.02629000  0.00000000  0.03197733       0.014
   0.03943501  0.00000000  0.03197733       0.014
   0.05258001  0.00000000  0.03197733       0.007
   0.00000000  0.01371198  0.03197733       0.014
   0.01314500  0.01371198  0.03197733       0.028
   0.02629000  0.01371198  0.03197733       0.028
   0.03943501  0.01371198  0.03197733       0.028
   0.05258001  0.01371198  0.03197733       0.014
   0.00000000  0.02742397  0.03197733       0.014
   0.01314500  0.02742397  0.03197733       0.028
   0.02629000  0.02742397  0.03197733       0.028
   0.03943501  0.02742397  0.03197733       0.028
   0.05258001  0.02742397  0.03197733       0.014
   0.00000000  0.04113595  0.03197733       0.007
   0.01314500  0.04113595  0.03197733       0.014
   0.02629000  0.04113595  0.03197733       0.014
   0.03943501  0.04113595  0.03197733       0.014
   0.05258001  0.04113595  0.03197733       0.007
   0.00000000  0.00000000  0.04796600       0.003
   0.01314500  0.00000000  0.04796600       0.007
   0.02629000  0.00000000  0.04796600       0.007
   0.03943501  0.00000000  0.04796600       0.007
   0.05258001  0.00000000  0.04796600       0.003
   0.00000000  0.01371198  0.04796600       0.007
   0.01314500  0.01371198  0.04796600       0.014
   0.02629000  0.01371198  0.04796600       0.014
   0.03943501  0.01371198  0.04796600       0.014
   0.05258001  0.01371198  0.04796600       0.007
   0.00000000  0.02742397  0.04796600       0.007
   0.01314500  0.02742397  0.04796600       0.014
   0.02629000  0.02742397  0.04796600       0.014
   0.03943501  0.02742397  0.04796600       0.014
   0.05258001  0.02742397  0.04796600       0.007
   0.00000000  0.04113595  0.04796600       0.003
   0.01314500  0.04113595  0.04796600       0.007
   0.02629000  0.04113595  0.04796600       0.007
   0.03943501  0.04113595  0.04796600       0.007
   0.05258001  0.04113595  0.04796600       0.003
 
 k-points in reciprocal lattice and weights: Automatically generated K-points        
   0.00000000  0.00000000  0.00000000       0.003
   0.12500000  0.00000000  0.00000000       0.007
   0.25000000  0.00000000  0.00000000       0.007
   0.37500000  0.00000000  0.00000000       0.007
   0.50000000  0.00000000  0.00000000       0.003
   0.00000000  0.16666667  0.00000000       0.007
   0.12500000  0.16666667  0.00000000       0.014
   0.25000000  0.16666667  0.00000000       0.014
   0.37500000  0.16666667  0.00000000       0.014
   0.50000000  0.16666667  0.00000000       0.007
   0.00000000  0.33333333  0.00000000       0.007
   0.12500000  0.33333333  0.00000000       0.014
   0.25000000  0.33333333  0.00000000       0.014
   0.37500000  0.33333333  0.00000000       0.014
   0.50000000  0.33333333  0.00000000       0.007
   0.00000000  0.50000000  0.00000000       0.003
   0.12500000  0.50000000  0.00000000       0.007
   0.25000000  0.50000000  0.00000000       0.007
   0.37500000  0.50000000  0.00000000       0.007
   0.50000000  0.50000000  0.00000000       0.003
   0.00000000  0.00000000  0.16666667       0.007
   0.12500000  0.00000000  0.16666667       0.014
   0.25000000  0.00000000  0.16666667       0.014
   0.37500000  0.00000000  0.16666667       0.014
   0.50000000  0.00000000  0.16666667       0.007
   0.00000000  0.16666667  0.16666667       0.014
   0.12500000  0.16666667  0.16666667       0.028
   0.25000000  0.16666667  0.16666667       0.028
   0.37500000  0.16666667  0.16666667       0.028
   0.50000000  0.16666667  0.16666667       0.014
   0.00000000  0.33333333  0.16666667       0.014
   0.12500000  0.33333333  0.16666667       0.028
   0.25000000  0.33333333  0.16666667       0.028
   0.37500000  0.33333333  0.16666667       0.028
   0.50000000  0.33333333  0.16666667       0.014
   0.00000000  0.50000000  0.16666667       0.007
   0.12500000  0.50000000  0.16666667       0.014
   0.25000000  0.50000000  0.16666667       0.014
   0.37500000  0.50000000  0.16666667       0.014
   0.50000000  0.50000000  0.16666667       0.007
   0.00000000  0.00000000  0.33333333       0.007
   0.12500000  0.00000000  0.33333333       0.014
   0.25000000  0.00000000  0.33333333       0.014
   0.37500000  0.00000000  0.33333333       0.014
   0.50000000  0.00000000  0.33333333       0.007
   0.00000000  0.16666667  0.33333333       0.014
   0.12500000  0.16666667  0.33333333       0.028
   0.25000000  0.16666667  0.33333333       0.028
   0.37500000  0.16666667  0.33333333       0.028
   0.50000000  0.16666667  0.33333333       0.014
   0.00000000  0.33333333  0.33333333       0.014
   0.12500000  0.33333333  0.33333333       0.028
   0.25000000  0.33333333  0.33333333       0.028
   0.37500000  0.33333333  0.33333333       0.028
   0.50000000  0.33333333  0.33333333       0.014
   0.00000000  0.50000000  0.33333333       0.007
   0.12500000  0.50000000  0.33333333       0.014
   0.25000000  0.50000000  0.33333333       0.014
   0.37500000  0.50000000  0.33333333       0.014
   0.50000000  0.50000000  0.33333333       0.007
   0.00000000  0.00000000  0.50000000       0.003
   0.12500000  0.00000000  0.50000000       0.007
   0.25000000  0.00000000  0.50000000       0.007
   0.37500000  0.00000000  0.50000000       0.007
   0.50000000  0.00000000  0.50000000       0.003
   0.00000000  0.16666667  0.50000000       0.007
   0.12500000  0.16666667  0.50000000       0.014
   0.25000000  0.16666667  0.50000000       0.014
   0.37500000  0.16666667  0.50000000       0.014
   0.50000000  0.16666667  0.50000000       0.007
   0.00000000  0.33333333  0.50000000       0.007
   0.12500000  0.33333333  0.50000000       0.014
   0.25000000  0.33333333  0.50000000       0.014
   0.37500000  0.33333333  0.50000000       0.014
   0.50000000  0.33333333  0.50000000       0.007
   0.00000000  0.50000000  0.50000000       0.003
   0.12500000  0.50000000  0.50000000       0.007
   0.25000000  0.50000000  0.50000000       0.007
   0.37500000  0.50000000  0.50000000       0.007
   0.50000000  0.50000000  0.50000000       0.003
 
 position of ions in fractional coordinates (direct lattice) 
   0.00000000  0.00000000  0.00000000
   0.00000000  0.50000000  0.00000000
   0.50000000  0.00000000  0.00000000
   0.50000000  0.50000000  0.00000000
   0.25000000  0.25000000  0.50000000
   0.25000000  0.75000000  0.50000000
   0.75000000  0.25000000  0.50000000
   0.75000000  0.75000000  0.50000000
   0.25000000  0.00000000  0.50000000
   0.25000000  0.50000000  0.50000000
   0.75000000  0.00000000  0.50000000
   0.75000000  0.50000000  0.50000000
   0.00000000  0.25000000  0.00000000
   0.00000000  0.75000000  0.00000000
   0.50000000  0.25000000  0.00000000
   0.50000000  0.75000000  0.00000000
   0.26254682  0.12500000  0.78112685
   0.26254682  0.62500000  0.78112685
   0.76254682  0.12500000  0.78112685
   0.76254682  0.62500000  0.78112685
   0.01254682  0.37500000  0.71887315
   0.01254682  0.87500000  0.71887315
   0.51254682  0.37500000  0.71887315
   0.51254682  0.87500000  0.71887315
   0.48745318  0.12500000  0.28112685
   0.48745318  0.62500000  0.28112685
   0.98745318  0.12500000  0.28112685
   0.98745318  0.62500000  0.28112685
   0.23745318  0.37500000  0.21887315
   0.23745318  0.87500000  0.21887315
   0.73745318  0.37500000  0.21887315
   0.73745318  0.87500000  0.21887315
   0.20903672  0.12500000  0.09452166
   0.20903672  0.62500000  0.09452166
   0.70903672  0.12500000  0.09452166
   0.70903672  0.62500000  0.09452166
   0.45903672  0.37500000  0.40547834
   0.45903672  0.87500000  0.40547834
   0.95903672  0.37500000  0.40547834
   0.95903672  0.87500000  0.40547834
   0.04096328  0.12500000  0.59452166
   0.04096328  0.62500000  0.59452166
   0.54096328  0.12500000  0.59452166
   0.54096328  0.62500000  0.59452166
   0.29096328  0.37500000  0.90547834
   0.29096328  0.87500000  0.90547834
   0.79096328  0.37500000  0.90547834
   0.79096328  0.87500000  0.90547834
   0.37068584  0.12500000  0.09661331
   0.37068584  0.62500000  0.09661331
   0.87068584  0.12500000  0.09661331
   0.87068584  0.62500000  0.09661331
   0.35731402  0.27339977  0.83420892
   0.35731402  0.77339977  0.83420892
   0.85731402  0.27339977  0.83420892
   0.85731402  0.77339977  0.83420892
   0.35731402  0.47660023  0.83420892
   0.35731402  0.97660023  0.83420892
   0.85731402  0.47660023  0.83420892
   0.85731402  0.97660023  0.83420892
   0.12931416  0.37500000  0.90338669
   0.12931416  0.87500000  0.90338669
   0.62931416  0.37500000  0.90338669
   0.62931416  0.87500000  0.90338669
   0.35359494  0.37500000  0.04321980
   0.35359494  0.87500000  0.04321980
   0.85359494  0.37500000  0.04321980
   0.85359494  0.87500000  0.04321980
   0.12068584  0.37500000  0.40338669
   0.12068584  0.87500000  0.40338669
   0.62068584  0.37500000  0.40338669
   0.62068584  0.87500000  0.40338669
   0.14268598  0.02339977  0.16579108
   0.14268598  0.52339977  0.16579108
   0.64268598  0.02339977  0.16579108
   0.64268598  0.52339977  0.16579108
   0.10731402  0.22660023  0.66579108
   0.10731402  0.72660023  0.66579108
   0.60731402  0.22660023  0.66579108
   0.60731402  0.72660023  0.66579108
   0.39268598  0.27339977  0.33420892
   0.39268598  0.77339977  0.33420892
   0.89268598  0.27339977  0.33420892
   0.89268598  0.77339977  0.33420892
   0.39268598  0.47660023  0.33420892
   0.39268598  0.97660023  0.33420892
   0.89268598  0.47660023  0.33420892
   0.89268598  0.97660023  0.33420892
   0.14640506  0.12500000  0.95678020
   0.14640506  0.62500000  0.95678020
   0.64640506  0.12500000  0.95678020
   0.64640506  0.62500000  0.95678020
   0.10359494  0.12500000  0.45678020
   0.10359494  0.62500000  0.45678020
   0.60359494  0.12500000  0.45678020
   0.60359494  0.62500000  0.45678020
   0.39640506  0.37500000  0.54321980
   0.39640506  0.87500000  0.54321980
   0.89640506  0.37500000  0.54321980
   0.89640506  0.87500000  0.54321980
   0.37931416  0.12500000  0.59661331
   0.37931416  0.62500000  0.59661331
   0.87931416  0.12500000  0.59661331
   0.87931416  0.62500000  0.59661331
   0.10731402  0.02339977  0.66579108
   0.10731402  0.52339977  0.66579108
   0.60731402  0.02339977  0.66579108
   0.60731402  0.52339977  0.66579108
   0.14268598  0.22660023  0.16579108
   0.14268598  0.72660023  0.16579108
   0.64268598  0.22660023  0.16579108
   0.64268598  0.72660023  0.16579108
 
 position of ions in cartesian coordinates  (Angst):
   0.00000000  0.00000000  0.00000000
   0.00000000  6.07740922  0.00000000
   4.75465881  0.00000000  0.00000000
   4.75465881  6.07740922  0.00000000
   2.37732940  3.03870461  5.21202524
   2.37732940  9.11611383  5.21202524
   7.13198821  3.03870461  5.21202524
   7.13198821  9.11611383  5.21202524
   2.37732940  0.00000000  5.21202524
   2.37732940  6.07740922  5.21202524
   7.13198821  0.00000000  5.21202524
   7.13198821  6.07740922  5.21202524
   0.00000000  3.03870461  0.00000000
   0.00000000  9.11611383  0.00000000
   4.75465881  3.03870461  0.00000000
   4.75465881  9.11611383  0.00000000
   2.49664113  1.51935231  8.14250568
   2.49664113  7.59676153  8.14250568
   7.25129994  1.51935231  8.14250568
   7.25129994  7.59676153  8.14250568
   0.11931172  4.55805692  7.49357005
   0.11931172 10.63546614  7.49357005
   4.87397053  4.55805692  7.49357005
   4.87397053 10.63546614  7.49357005
   4.63534708  1.51935231  2.93048044
   4.63534708  7.59676153  2.93048044
   9.39000589  1.51935231  2.93048044
   9.39000589  7.59676153  2.93048044
   2.25801768  4.55805692  2.28154480
   2.25801768 10.63546614  2.28154480
   7.01267649  4.55805692  2.28154480
   7.01267649 10.63546614  2.28154480
   1.98779658  1.51935231  0.98529859
   1.98779658  7.59676153  0.98529859
   6.74245539  1.51935231  0.98529859
   6.74245539  7.59676153  0.98529859
   4.36512599  4.55805692  4.22672666
   4.36512599 10.63546614  4.22672666
   9.11978480  4.55805692  4.22672666
   9.11978480 10.63546614  4.22672666
   0.38953282  1.51935231  6.19732383
   0.38953282  7.59676153  6.19732383
   5.14419163  1.51935231  6.19732383
   5.14419163  7.59676153  6.19732383
   2.76686222  4.55805692  9.43875190
   2.76686222 10.63546614  9.43875190
   7.52152103  4.55805692  9.43875190
   7.52152103 10.63546614  9.43875190
   3.52496940  1.51935231  1.00710197
   3.52496940  7.59676153  1.00710197
   8.27962821  1.51935231  1.00710197
   8.27962821  7.59676153  1.00710197
   3.39781255  3.32312459  8.69583593
   3.39781255  9.40053381  8.69583593
   8.15247136  3.32312459  8.69583593
   8.15247136  9.40053381  8.69583593
   3.39781255  5.79298924  8.69583593
   3.39781255 11.87039846  8.69583593
   8.15247136  5.79298924  8.69583593
   8.15247136 11.87039846  8.69583593
   1.22968941  4.55805692  9.41694851
   1.22968941 10.63546614  9.41694851
   5.98434822  4.55805692  9.41694851
   5.98434822 10.63546614  9.41694851
   3.36244660  4.55805692  0.45052543
   3.36244660 10.63546614  0.45052543
   8.11710541  4.55805692  0.45052543
   8.11710541 10.63546614  0.45052543
   1.14764000  4.55805692  4.20492327
   1.14764000 10.63546614  4.20492327
   5.90229880  4.55805692  4.20492327
   5.90229880 10.63546614  4.20492327
   1.35684626  0.28441998  1.72821456
   1.35684626  6.36182920  1.72821456
   6.11150507  0.28441998  1.72821456
   6.11150507  6.36182920  1.72821456
   1.02048314  2.75428463  6.94023981
   1.02048314  8.83169385  6.94023981
   5.77514195  2.75428463  6.94023981
   5.77514195  8.83169385  6.94023981
   3.73417566  3.32312459  3.48381068
   3.73417566  9.40053381  3.48381068
   8.48883447  3.32312459  3.48381068
   8.48883447  9.40053381  3.48381068
   3.73417566  5.79298924  3.48381068
   3.73417566 11.87039846  3.48381068
   8.48883447  5.79298924  3.48381068
   8.48883447 11.87039846  3.48381068
   1.39221221  1.51935231  9.97352506
   1.39221221  7.59676153  9.97352506
   6.14687102  1.51935231  9.97352506
   6.14687102  7.59676153  9.97352506
   0.98511720  1.51935231  4.76149982
   0.98511720  7.59676153  4.76149982
   5.73977600  1.51935231  4.76149982
   5.73977600  7.59676153  4.76149982
   3.76954161  4.55805692  5.66255067
   3.76954161 10.63546614  5.66255067
   8.52420042  4.55805692  5.66255067
   8.52420042 10.63546614  5.66255067
   3.60701881  1.51935231  6.21912722
   3.60701881  7.59676153  6.21912722
   8.36167762  1.51935231  6.21912722
   8.36167762  7.59676153  6.21912722
   1.02048314  0.28441998  6.94023981
   1.02048314  6.36182920  6.94023981
   5.77514195  0.28441998  6.94023981
   5.77514195  6.36182920  6.94023981
   1.35684626  2.75428463  1.72821456
   1.35684626  8.83169385  1.72821456
   6.11150507  2.75428463  1.72821456
   6.11150507  8.83169385  1.72821456
 


--------------------------------------------------------------------------------------------------------


 k-point   1 :   0.0000 0.0000 0.0000  plane waves:   32477
 k-point   2 :   0.1250 0.0000 0.0000  plane waves:   32483
 k-point   3 :   0.2500 0.0000 0.0000  plane waves:   32455
 k-point   4 :   0.3750 0.0000 0.0000  plane waves:   32452
 k-point   5 :   0.5000 0.0000 0.0000  plane waves:   32452
 k-point   6 :   0.0000 0.1667 0.0000  plane waves:   32461
 k-point   7 :   0.1250 0.1667 0.0000  plane waves:   32455
 k-point   8 :   0.2500 0.1667 0.0000  plane waves:   32456
 k-point   9 :   0.3750 0.1667 0.0000  plane waves:   32424
 k-point  10 :   0.5000 0.1667 0.0000  plane waves:   32414
 k-point  11 :   0.0000 0.3333 0.0000  plane waves:   32443
 k-point  12 :   0.1250 0.3333 0.0000  plane waves:   32450
 k-point  13 :   0.2500 0.3333 0.0000  plane waves:   32441
 k-point  14 :   0.3750 0.3333 0.0000  plane waves:   32445
 k-point  15 :   0.5000 0.3333 0.0000  plane waves:   32428
 k-point  16 :   0.0000 0.5000 0.0000  plane waves:   32486
 k-point  17 :   0.1250 0.5000 0.0000  plane waves:   32446
 k-point  18 :   0.2500 0.5000 0.0000  plane waves:   32434
 k-point  19 :   0.3750 0.5000 0.0000  plane waves:   32432
 k-point  20 :   0.5000 0.5000 0.0000  plane waves:   32464
 k-point  21 :   0.0000 0.0000 0.1667  plane waves:   32473
 k-point  22 :   0.1250 0.0000 0.1667  plane waves:   32462
 k-point  23 :   0.2500 0.0000 0.1667  plane waves:   32432
 k-point  24 :   0.3750 0.0000 0.1667  plane waves:   32450
 k-point  25 :   0.5000 0.0000 0.1667  plane waves:   32414
 k-point  26 :   0.0000 0.1667 0.1667  plane waves:   32448
 k-point  27 :   0.1250 0.1667 0.1667  plane waves:   32469
 k-point  28 :   0.2500 0.1667 0.1667  plane waves:   32447
 k-point  29 :   0.3750 0.1667 0.1667  plane waves:   32444
 k-point  30 :   0.5000 0.1667 0.1667  plane waves:   32446
 k-point  31 :   0.0000 0.3333 0.1667  plane waves:   32457
 k-point  32 :   0.1250 0.3333 0.1667  plane waves:   32446
 k-point  33 :   0.2500 0.3333 0.1667  plane waves:   32435
 k-point  34 :   0.3750 0.3333 0.1667  plane waves:   32450
 k-point  35 :   0.5000 0.3333 0.1667  plane waves:   32462
 k-point  36 :   0.0000 0.5000 0.1667  plane waves:   32454
 k-point  37 :   0.1250 0.5000 0.1667  plane waves:   32438
 k-point  38 :   0.2500 0.5000 0.1667  plane waves:   32410
 k-point  39 :   0.3750 0.5000 0.1667  plane waves:   32428
 k-point  40 :   0.5000 0.5000 0.1667  plane waves:   32432
 k-point  41 :   0.0000 0.0000 0.3333  plane waves:   32413
 k-point  42 :   0.1250 0.0000 0.3333  plane waves:   32453
 k-point  43 :   0.2500 0.0000 0.3333  plane waves:   32434
 k-point  44 :   0.3750 0.0000 0.3333  plane waves:   32455
 k-point  45 :   0.5000 0.0000 0.3333  plane waves:   32452
 k-point  46 :   0.0000 0.1667 0.3333  plane waves:   32455
 k-point  47 :   0.1250 0.1667 0.3333  plane waves:   32442
 k-point  48 :   0.2500 0.1667 0.3333  plane waves:   32446
 k-point  49 :   0.3750 0.1667 0.3333  plane waves:   32428
 k-point  50 :   0.5000 0.1667 0.3333  plane waves:   32432
 k-point  51 :   0.0000 0.3333 0.3333  plane waves:   32419
 k-point  52 :   0.1250 0.3333 0.3333  plane waves:   32441
 k-point  53 :   0.2500 0.3333 0.3333  plane waves:   32431
 k-point  54 :   0.3750 0.3333 0.3333  plane waves:   32428
 k-point  55 :   0.5000 0.3333 0.3333  plane waves:   32436
 k-point  56 :   0.0000 0.5000 0.3333  plane waves:   32450
 k-point  57 :   0.1250 0.5000 0.3333  plane waves:   32442
 k-point  58 :   0.2500 0.5000 0.3333  plane waves:   32434
 k-point  59 :   0.3750 0.5000 0.3333  plane waves:   32416
 k-point  60 :   0.5000 0.5000 0.3333  plane waves:   32424
 k-point  61 :   0.0000 0.0000 0.5000  plane waves:   32462
 k-point  62 :   0.1250 0.0000 0.5000  plane waves:   32414
 k-point  63 :   0.2500 0.0000 0.5000  plane waves:   32412
 k-point  64 :   0.3750 0.0000 0.5000  plane waves:   32436
 k-point  65 :   0.5000 0.0000 0.5000  plane waves:   32424
 k-point  66 :   0.0000 0.1667 0.5000  plane waves:   32456
 k-point  67 :   0.1250 0.1667 0.5000  plane waves:   32432
 k-point  68 :   0.2500 0.1667 0.5000  plane waves:   32438
 k-point  69 :   0.3750 0.1667 0.5000  plane waves:   32440
 k-point  70 :   0.5000 0.1667 0.5000  plane waves:   32408
 k-point  71 :   0.0000 0.3333 0.5000  plane waves:   32432
 k-point  72 :   0.1250 0.3333 0.5000  plane waves:   32436
 k-point  73 :   0.2500 0.3333 0.5000  plane waves:   32436
 k-point  74 :   0.3750 0.3333 0.5000  plane waves:   32424
 k-point  75 :   0.5000 0.3333 0.5000  plane waves:   32444
 k-point  76 :   0.0000 0.5000 0.5000  plane waves:   32448
 k-point  77 :   0.1250 0.5000 0.5000  plane waves:   32464
 k-point  78 :   0.2500 0.5000 0.5000  plane waves:   32436
 k-point  79 :   0.3750 0.5000 0.5000  plane waves:   32408
 k-point  80 :   0.5000 0.5000 0.5000  plane waves:   32448

 maximum and minimum number of plane-waves per node :     32486    32408

 maximum number of plane-waves:     32486
 maximum index in each direction: 
   IXMAX=   17   IYMAX=   22   IZMAX=   19
   IXMIN=  -18   IYMIN=  -23   IZMIN=  -19


 serial   3D FFT for wavefunctions
 parallel 3D FFT for charge:
    minimum data exchange during FFTs selected (reduces bandwidth)


 total amount of memory used by VASP MPI-rank0   822877. kBytes
=======================================================================

   base      :      30000. kBytes
   nonlr-proj:      46210. kBytes
   fftplans  :       4996. kBytes
   grid      :      50060. kBytes
   one-center:       3483. kBytes
   wavefun   :     688128. kBytes
 
     INWAV:  cpu time      0.0000: real time      0.0000
 initial charge density was supplied:
 number of electron     639.0114742 magnetization      51.1588440
 keeping initial charge density in first step


--------------------------------------------------------------------------------------------------------


 Maximum index for non-local projection operator         6296
 Maximum index for augmentation-charges          718 (set IRDMAX)


--------------------------------------------------------------------------------------------------------


 First call to EWALD:  gamma=   0.167
 Maximum number of real-space cells 3x 2x 3
 Maximum number of reciprocal cells 3x 3x 3

    FEWALD:  cpu time      0.0288: real time      0.0293


--------------------------------------- Iteration      1(   1)  ---------------------------------------


    POTLOK:  cpu time      0.2055: real time      0.2643
    SETDIJ:  cpu time      0.0220: real time      0.0354
     EDDAV:  cpu time    415.0655: real time    416.7368
       DOS:  cpu time      0.0132: real time      0.0201
    --------------------------------------------
      LOOP:  cpu time    415.3062: real time    417.0567

 eigenvalue-minimisations  :143360
 total energy-change (2. order) : 0.7043951E+04  (-0.3004189E+05)
 number of electron     639.0114742 magnetization      51.1588440
 augmentation part      639.0114742 magnetization      51.1588440

 Free energy of the ion-electron system (eV)
  ---------------------------------------------------
  alpha Z        PSCENC =      1926.47192928
  Ewald energy   TEWEN  =    -31814.94924450
  -Hartree energ DENC   =    -11881.91841882
  -exchange      EXHF   =         0.00000000
  -V(xc)+E(xc)   XCENC  =      2187.18597991
  PAW double counting   =     28450.55557953   -28754.91099046
  entropy T*S    EENTRO =        -0.02482610
  eigenvalues    EBANDS =      3687.95989813
  atomic energy  EATOM  =     43243.58083129
  Solvation  Ediel_sol  =         0.00000000
  ---------------------------------------------------
  free energy    TOTEN  =      7043.95073825 eV

  energy without entropy =     7043.97556435  energy(sigma->0) =     7043.96315130


--------------------------------------------------------------------------------------------------------




--------------------------------------- Iteration      1(   2)  ---------------------------------------


     EDDAV:  cpu time    435.6209: real time    437.0332
       DOS:  cpu time      0.0121: real time      0.0121
    --------------------------------------------
      LOOP:  cpu time    435.6330: real time    437.0453

 eigenvalue-minimisations  :147840
 total energy-change (2. order) :-0.6704883E+04  (-0.6192235E+04)
 number of electron     639.0114742 magnetization      51.1588440
 augmentation part      639.0114742 magnetization      51.1588440

 Free energy of the ion-electron system (eV)
  ---------------------------------------------------
  alpha Z        PSCENC =      1926.47192928
  Ewald energy   TEWEN  =    -31814.94924450
  -Hartree energ DENC   =    -11881.91841882
  -exchange      EXHF   =         0.00000000
  -V(xc)+E(xc)   XCENC  =      2187.18597991
  PAW double counting   =     28450.55557953   -28754.91099046
  entropy T*S    EENTRO =        -0.01756051
  eigenvalues    EBANDS =     -3016.93055959
  atomic energy  EATOM  =     43243.58083129
  Solvation  Ediel_sol  =         0.00000000
[...]
      7.25130      1.51935      8.14251         0.012586     -0.000000      0.007014
      7.25130      7.59676      8.14251         0.012586     -0.000000      0.007014
      0.11931      4.55806      7.49357         0.012586     -0.000000     -0.007014
      0.11931     10.63547      7.49357         0.012586     -0.000000     -0.007014
      4.87397      4.55806      7.49357         0.012586     -0.000000     -0.007014
      4.87397     10.63547      7.49357         0.012586     -0.000000     -0.007014
      4.63535      1.51935      2.93048        -0.012586     -0.000000      0.007014
      4.63535      7.59676      2.93048        -0.012586     -0.000000      0.007014
      9.39001      1.51935      2.93048        -0.012586     -0.000000      0.007014
      9.39001      7.59676      2.93048        -0.012586     -0.000000      0.007014
      2.25802      4.55806      2.28154        -0.012586     -0.000000     -0.007014
      2.25802     10.63547      2.28154        -0.012586     -0.000000     -0.007014
      7.01268      4.55806      2.28154        -0.012586     -0.000000     -0.007014
      7.01268     10.63547      2.28154        -0.012586     -0.000000     -0.007014
      1.98780      1.51935      0.98530         0.080974     -0.000000     -0.044914
      1.98780      7.59676      0.98530         0.080974     -0.000000     -0.044914
      6.74246      1.51935      0.98530         0.080974     -0.000000     -0.044914
      6.74246      7.59676      0.98530         0.080974     -0.000000     -0.044914
      4.36513      4.55806      4.22673         0.080974     -0.000000      0.044914
      4.36513     10.63547      4.22673         0.080974     -0.000000      0.044914
      9.11978      4.55806      4.22673         0.080974     -0.000000      0.044914
      9.11978     10.63547      4.22673         0.080974     -0.000000      0.044914
      0.38953      1.51935      6.19732        -0.080974     -0.000000     -0.044914
      0.38953      7.59676      6.19732        -0.080974     -0.000000     -0.044914
      5.14419      1.51935      6.19732        -0.080974     -0.000000     -0.044914
      5.14419      7.59676      6.19732        -0.080974     -0.000000     -0.044914
      2.76686      4.55806      9.43875        -0.080974     -0.000000      0.044914
      2.76686     10.63547      9.43875        -0.080974     -0.000000      0.044914
      7.52152      4.55806      9.43875        -0.080974     -0.000000      0.044914
      7.52152     10.63547      9.43875        -0.080974     -0.000000      0.044914
      3.52497      1.51935      1.00710        -0.406558     -0.000000      0.096201
      3.52497      7.59676      1.00710        -0.406558     -0.000000      0.096201
      8.27963      1.51935      1.00710        -0.406558     -0.000000      0.096201
      8.27963      7.59676      1.00710        -0.406558     -0.000000      0.096201
      3.39781      3.32312      8.69584        -0.166313      0.285593      0.110638
      3.39781      9.40053      8.69584        -0.166313      0.285593      0.110638
      8.15247      3.32312      8.69584        -0.166313      0.285593      0.110638
      8.15247      9.40053      8.69584        -0.166313      0.285593      0.110638
      3.39781      5.79299      8.69584        -0.166313     -0.285593      0.110638
      3.39781     11.87040      8.69584        -0.166313     -0.285593      0.110638
      8.15247      5.79299      8.69584        -0.166313     -0.285593      0.110638
      8.15247     11.87040      8.69584        -0.166313     -0.285593      0.110638
      1.22969      4.55806      9.41695         0.406558     -0.000000     -0.096201
      1.22969     10.63547      9.41695         0.406558     -0.000000     -0.096201
      5.98435      4.55806      9.41695         0.406558     -0.000000     -0.096201
      5.98435     10.63547      9.41695         0.406558     -0.000000     -0.096201
      3.36245      4.55806      0.45053        -0.273011     -0.000000     -0.367358
      3.36245     10.63547      0.45053        -0.273011     -0.000000     -0.367358
      8.11711      4.55806      0.45053        -0.273011     -0.000000     -0.367358
      8.11711     10.63547      0.45053        -0.273011     -0.000000     -0.367358
      1.14764      4.55806      4.20492        -0.406558     -0.000000     -0.096201
      1.14764     10.63547      4.20492        -0.406558     -0.000000     -0.096201
      5.90230      4.55806      4.20492        -0.406558     -0.000000     -0.096201
      5.90230     10.63547      4.20492        -0.406558     -0.000000     -0.096201
      1.35685      0.28442      1.72821         0.166313      0.285593     -0.110638
      1.35685      6.36183      1.72821         0.166313      0.285593     -0.110638
      6.11151      0.28442      1.72821         0.166313      0.285593     -0.110638
      6.11151      6.36183      1.72821         0.166313      0.285593     -0.110638
      1.02048      2.75428      6.94024        -0.166313     -0.285593     -0.110638
      1.02048      8.83169      6.94024        -0.166313     -0.285593     -0.110638
      5.77514      2.75428      6.94024        -0.166313     -0.285593     -0.110638
      5.77514      8.83169      6.94024        -0.166313     -0.285593     -0.110638
      3.73418      3.32312      3.48381         0.166313      0.285593      0.110638
      3.73418      9.40053      3.48381         0.166313      0.285593      0.110638
      8.48883      3.32312      3.48381         0.166313      0.285593      0.110638
      8.48883      9.40053      3.48381         0.166313      0.285593      0.110638
      3.73418      5.79299      3.48381         0.166313     -0.285593      0.110638
      3.73418     11.87040      3.48381         0.166313     -0.285593      0.110638
      8.48883      5.79299      3.48381         0.166313     -0.285593      0.110638
      8.48883     11.87040      3.48381         0.166313     -0.285593      0.110638
      1.39221      1.51935      9.97353         0.273011     -0.000000      0.367358
      1.39221      7.59676      9.97353         0.273011     -0.000000      0.367358
      6.14687      1.51935      9.97353         0.273011     -0.000000      0.367358
      6.14687      7.59676      9.97353         0.273011     -0.000000      0.367358
      0.98512      1.51935      4.76150        -0.273011     -0.000000      0.367358
      0.98512      7.59676      4.76150        -0.273011     -0.000000      0.367358
      5.73978      1.51935      4.76150        -0.273011     -0.000000      0.367358
      5.73978      7.59676      4.76150        -0.273011     -0.000000      0.367358
      3.76954      4.55806      5.66255         0.273011     -0.000000     -0.367358
      3.76954     10.63547      5.66255         0.273011     -0.000000     -0.367358
      8.52420      4.55806      5.66255         0.273011     -0.000000     -0.367358
      8.52420     10.63547      5.66255         0.273011     -0.000000     -0.367358
      3.60702      1.51935      6.21913         0.406558     -0.000000      0.096201
      3.60702      7.59676      6.21913         0.406558     -0.000000      0.096201
      8.36168      1.51935      6.21913         0.406558     -0.000000      0.096201
      8.36168      7.59676      6.21913         0.406558     -0.000000      0.096201
      1.02048      0.28442      6.94024        -0.166313      0.285593     -0.110638
      1.02048      6.36183      6.94024        -0.166313      0.285593     -0.110638
      5.77514      0.28442      6.94024        -0.166313      0.285593     -0.110638
      5.77514      6.36183      6.94024        -0.166313      0.285593     -0.110638
      1.35685      2.75428      1.72821         0.166313     -0.285593     -0.110638
      1.35685      8.83169      1.72821         0.166313     -0.285593     -0.110638
      6.11151      2.75428      1.72821         0.166313     -0.285593     -0.110638
      6.11151      8.83169      1.72821         0.166313     -0.285593     -0.110638
 -----------------------------------------------------------------------------------
    total drift:                                0.000000      0.000000     -0.000000


--------------------------------------------------------------------------------------------------------



  FREE ENERGIE OF THE ION-ELECTRON SYSTEM (eV)
  ---------------------------------------------------
  free  energy   TOTEN  =      -767.63644137 eV

  energy  without entropy=     -767.63644137  energy(sigma->0) =     -767.63644137
 


--------------------------------------------------------------------------------------------------------


    POTLOK:  cpu time      0.1850: real time      0.1870


--------------------------------------------------------------------------------------------------------


     LOOP+:  cpu time   4826.9979: real time   4840.4570
    4ORBIT:  cpu time      0.0000: real time      0.0000



 total charge

# of ion       s       p       d       tot
------------------------------------------
    1        2.058   0.158   0.000   2.216
    2        2.058   0.158   0.000   2.216
    3        2.058   0.158   0.000   2.216
    4        2.058   0.158   0.000   2.216
    5        2.058   0.158   0.000   2.216
    6        2.058   0.158   0.000   2.216
    7        2.058   0.158   0.000   2.216
    8        2.058   0.158   0.000   2.216
    9        2.058   0.158   0.000   2.216
   10        2.058   0.158   0.000   2.216
   11        2.058   0.158   0.000   2.216
   12        2.058   0.158   0.000   2.216
   13        2.058   0.158   0.000   2.216
   14        2.058   0.158   0.000   2.216
   15        2.058   0.158   0.000   2.216
   16        2.058   0.158   0.000   2.216
   17        0.243   0.300   6.068   6.611
   18        0.243   0.300   6.068   6.611
   19        0.243   0.300   6.068   6.611
   20        0.243   0.300   6.068   6.611
   21        0.243   0.300   6.068   6.611
   22        0.243   0.300   6.068   6.611
   23        0.243   0.300   6.068   6.611
   24        0.243   0.300   6.068   6.611
   25        0.243   0.300   6.068   6.611
   26        0.243   0.300   6.068   6.611
   27        0.243   0.300   6.068   6.611
   28        0.243   0.300   6.068   6.611
   29        0.243   0.300   6.068   6.611
   30        0.243   0.300   6.068   6.611
   31        0.243   0.300   6.068   6.611
   32        0.243   0.300   6.068   6.611
   33        0.916   1.493   0.000   2.409
   34        0.916   1.493   0.000   2.409
   35        0.916   1.493   0.000   2.409
   36        0.916   1.493   0.000   2.409
   37        0.916   1.493   0.000   2.409
   38        0.916   1.493   0.000   2.409
   39        0.916   1.493   0.000   2.409
   40        0.916   1.493   0.000   2.409
   41        0.916   1.493   0.000   2.409
   42        0.916   1.493   0.000   2.409
   43        0.916   1.493   0.000   2.409
   44        0.916   1.493   0.000   2.409
   45        0.916   1.493   0.000   2.409
   46        0.916   1.493   0.000   2.409
   47        0.916   1.493   0.000   2.409
   48        0.916   1.493   0.000   2.409
   49        1.567   3.605   0.000   5.172
   50        1.567   3.605   0.000   5.172
   51        1.567   3.605   0.000   5.172
   52        1.567   3.605   0.000   5.172
   53        1.564   3.612   0.000   5.176
   54        1.564   3.612   0.000   5.176
   55        1.564   3.612   0.000   5.176
   56        1.564   3.612   0.000   5.176
   57        1.564   3.612   0.000   5.176
   58        1.564   3.612   0.000   5.176
   59        1.564   3.612   0.000   5.176
   60        1.564   3.612   0.000   5.176
   61        1.567   3.605   0.000   5.172
   62        1.567   3.605   0.000   5.172
   63        1.567   3.605   0.000   5.172
   64        1.567   3.605   0.000   5.172
   65        1.566   3.616   0.000   5.182
   66        1.566   3.616   0.000   5.182
   67        1.566   3.616   0.000   5.182
   68        1.566   3.616   0.000   5.182
   69        1.567   3.605   0.000   5.172
   70        1.567   3.605   0.000   5.172
   71        1.567   3.605   0.000   5.172
   72        1.567   3.605   0.000   5.172
   73        1.564   3.612   0.000   5.176
   74        1.564   3.612   0.000   5.176
   75        1.564   3.612   0.000   5.176
   76        1.564   3.612   0.000   5.176
   77        1.564   3.612   0.000   5.176
   78        1.564   3.612   0.000   5.176
   79        1.564   3.612   0.000   5.176
   80        1.564   3.612   0.000   5.176
   81        1.564   3.612   0.000   5.176
   82        1.564   3.612   0.000   5.176
   83        1.564   3.612   0.000   5.176
   84        1.564   3.612   0.000   5.176
   85        1.564   3.612   0.000   5.176
   86        1.564   3.612   0.000   5.176
   87        1.564   3.612   0.000   5.176
   88        1.564   3.612   0.000   5.176
   89        1.566   3.616   0.000   5.182
   90        1.566   3.616   0.000   5.182
   91        1.566   3.616   0.000   5.182
   92        1.566   3.616   0.000   5.182
   93        1.566   3.616   0.000   5.182
   94        1.566   3.616   0.000   5.182
   95        1.566   3.616   0.000   5.182
   96        1.566   3.616   0.000   5.182
   97        1.566   3.616   0.000   5.182
   98        1.566   3.616   0.000   5.182
   99        1.566   3.616   0.000   5.182
  100        1.566   3.616   0.000   5.182
  101        1.567   3.605   0.000   5.172
  102        1.567   3.605   0.000   5.172
  103        1.567   3.605   0.000   5.172
  104        1.567   3.605   0.000   5.172
  105        1.564   3.612   0.000   5.176
  106        1.564   3.612   0.000   5.176
  107        1.564   3.612   0.000   5.176
  108        1.564   3.612   0.000   5.176
  109        1.564   3.612   0.000   5.176
  110        1.564   3.612   0.000   5.176
  111        1.564   3.612   0.000   5.176
  112        1.564   3.612   0.000   5.176
--------------------------------------------------
tot        151.659 262.317  97.094 511.070



 magnetization (x)

# of ion       s       p       d       tot
------------------------------------------
    1        0.000   0.001   0.000   0.001
    2        0.000   0.001   0.000   0.001
    3        0.000   0.001   0.000   0.001
    4        0.000   0.001   0.000   0.001
    5        0.000   0.001   0.000   0.001
    6        0.000   0.001   0.000   0.001
    7        0.000   0.001   0.000   0.001
    8        0.000   0.001   0.000   0.001
    9        0.000   0.001   0.000   0.001
   10        0.000   0.001   0.000   0.001
   11        0.000   0.001   0.000   0.001
   12        0.000   0.001   0.000   0.001
   13        0.000   0.001   0.000   0.001
   14        0.000   0.001   0.000   0.001
   15        0.000   0.001   0.000   0.001
   16        0.000   0.001   0.000   0.001
   17        0.021   0.022   3.746   3.790
   18        0.021   0.022   3.746   3.790
   19        0.021   0.022   3.746   3.790
   20        0.021   0.022   3.746   3.790
   21        0.021   0.022   3.746   3.790
   22        0.021   0.022   3.746   3.790
   23        0.021   0.022   3.746   3.790
   24        0.021   0.022   3.746   3.790
   25        0.021   0.022   3.746   3.790
   26        0.021   0.022   3.746   3.790
   27        0.021   0.022   3.746   3.790
   28        0.021   0.022   3.746   3.790
   29        0.021   0.022   3.746   3.790
   30        0.021   0.022   3.746   3.790
   31        0.021   0.022   3.746   3.790
   32        0.021   0.022   3.746   3.790
   33        0.003   0.011   0.000   0.014
   34        0.003   0.011   0.000   0.014
   35        0.003   0.011   0.000   0.014
   36        0.003   0.011   0.000   0.014
   37        0.003   0.011   0.000   0.014
   38        0.003   0.011   0.000   0.014
   39        0.003   0.011   0.000   0.014
   40        0.003   0.011   0.000   0.014
   41        0.003   0.011   0.000   0.014
   42        0.003   0.011   0.000   0.014
   43        0.003   0.011   0.000   0.014
   44        0.003   0.011   0.000   0.014
   45        0.003   0.011   0.000   0.014
   46        0.003   0.011   0.000   0.014
   47        0.003   0.011   0.000   0.014
   48        0.003   0.011   0.000   0.014
   49        0.002   0.006   0.000   0.008
   50        0.002   0.006   0.000   0.008
   51        0.002   0.006   0.000   0.008
   52        0.002   0.006   0.000   0.008
   53        0.005   0.025   0.000   0.029
   54        0.005   0.025   0.000   0.029
   55        0.005   0.025   0.000   0.029
   56        0.005   0.025   0.000   0.029
   57        0.005   0.025   0.000   0.029
   58        0.005   0.025   0.000   0.029
   59        0.005   0.025   0.000   0.029
   60        0.005   0.025   0.000   0.029
   61        0.002   0.006   0.000   0.008
   62        0.002   0.006   0.000   0.008
   63        0.002   0.006   0.000   0.008
   64        0.002   0.006   0.000   0.008
   65        0.002   0.011   0.000   0.013
   66        0.002   0.011   0.000   0.013
   67        0.002   0.011   0.000   0.013
   68        0.002   0.011   0.000   0.013
   69        0.002   0.006   0.000   0.008
   70        0.002   0.006   0.000   0.008
   71        0.002   0.006   0.000   0.008
   72        0.002   0.006   0.000   0.008
   73        0.005   0.025   0.000   0.029
   74        0.005   0.025   0.000   0.029
   75        0.005   0.025   0.000   0.029
   76        0.005   0.025   0.000   0.029
   77        0.005   0.025   0.000   0.029
   78        0.005   0.025   0.000   0.029
   79        0.005   0.025   0.000   0.029
   80        0.005   0.025   0.000   0.029
   81        0.005   0.025   0.000   0.029
   82        0.005   0.025   0.000   0.029
   83        0.005   0.025   0.000   0.029
   84        0.005   0.025   0.000   0.029
   85        0.005   0.025   0.000   0.029
   86        0.005   0.025   0.000   0.029
   87        0.005   0.025   0.000   0.029
   88        0.005   0.025   0.000   0.029
   89        0.002   0.011   0.000   0.013
   90        0.002   0.011   0.000   0.013
   91        0.002   0.011   0.000   0.013
   92        0.002   0.011   0.000   0.013
   93        0.002   0.011   0.000   0.013
   94        0.002   0.011   0.000   0.013
   95        0.002   0.011   0.000   0.013
   96        0.002   0.011   0.000   0.013
   97        0.002   0.011   0.000   0.013
   98        0.002   0.011   0.000   0.013
   99        0.002   0.011   0.000   0.013
  100        0.002   0.011   0.000   0.013
  101        0.002   0.006   0.000   0.008
  102        0.002   0.006   0.000   0.008
  103        0.002   0.006   0.000   0.008
  104        0.002   0.006   0.000   0.008
  105        0.005   0.025   0.000   0.029
  106        0.005   0.025   0.000   0.029
  107        0.005   0.025   0.000   0.029
  108        0.005   0.025   0.000   0.029
  109        0.005   0.025   0.000   0.029
  110        0.005   0.025   0.000   0.029
  111        0.005   0.025   0.000   0.029
  112        0.005   0.025   0.000   0.029
--------------------------------------------------
tot          0.615   1.597  59.943  62.155
 

 total amount of memory used by VASP MPI-rank0   822877. kBytes
=======================================================================

   base      :      30000. kBytes
   nonlr-proj:      46210. kBytes
   fftplans  :       4996. kBytes
   grid      :      50060. kBytes
   one-center:       3483. kBytes
   wavefun   :     688128. kBytes
 
  
  
 General timing and accounting informations for this job:
 ========================================================
  
                  Total CPU time used (sec):     5134.448
                            User time (sec):     5051.908
                          System time (sec):       82.540
                         Elapsed time (sec):     5186.571
  
                   Maximum memory used (kb):     1554288.
                   Average memory used (kb):          N/A
  
                          Minor page faults:       815988
                          Major page faults:            2
                 Voluntary context switches:       245103
