  24  24   0   0
  0.8144474E+01  0.4898159E-09  0.4898161E-09  0.9533076E-09  0.2000000E-15
  1.000000000000000E-004
  CAR 
 OPT                                     
     20.74222463    -51.49953257  301      2.01956922      1.00000000
    -51.500  0.0000E+00  0.0000E+00  0.0000E+00  0.0000E+00
    -51.259  0.0000E+00  0.0000E+00  0.0000E+00  0.0000E+00
    -51.018  0.0000E+00  0.0000E+00  0.0000E+00  0.0000E+00
    -50.777  0.0000E+00  0.0000E+00  0.0000E+00  0.0000E+00
    -50.536  0.0000E+00  0.0000E+00  0.0000E+00  0.0000E+00
    -50.296  0.0000E+00  0.0000E+00  0.0000E+00  0.0000E+00
    -50.055  0.0000E+00  0.0000E+00  0.0000E+00  0.0000E+00
    -49.814  0.0000E+00  0.0000E+00  0.0000E+00  0.0000E+00
    -49.573  0.0000E+00  0.0000E+00  0.0000E+00  0.0000E+00
    -49.332  0.0000E+00  0.0000E+00  0.0000E+00  0.0000E+00
    -49.091  0.0000E+00  0.0000E+00  0.0000E+00  0.0000E+00
    -48.851  0.0000E+00  0.0000E+00  0.0000E+00  0.0000E+00
    -48.610  0.0000E+00  0.0000E+00  0.0000E+00  0.0000E+00
    -48.369  0.9757E-07  0.0000E+00  0.2350E-07  0.0000E+00
    -48.128  0.8443E-01  0.0000E+00  0.2033E-01  0.0000E+00
    -47.887  0.1523E-01  0.0000E+00  0.2400E-01  0.0000E+00
    -47.647  0.0000E+00  0.0000E+00  0.2400E-01  0.0000E+00
    -47.406  0.0000E+00  0.0000E+00  0.2400E-01  0.0000E+00
    -47.165  0.0000E+00  0.0000E+00  0.2400E-01  0.0000E+00
    -46.924  0.0000E+00  0.0000E+00  0.2400E-01  0.0000E+00
    -46.683  0.0000E+00  0.0000E+00  0.2400E-01  0.0000E+00
    -46.443  0.0000E+00  0.0000E+00  0.2400E-01  0.0000E+00
    -46.202  0.0000E+00  0.0000E+00  0.2400E-01  0.0000E+00
    -45.961  0.0000E+00  0.0000E+00  0.2400E-01  0.0000E+00
    -45.720  0.0000E+00  0.0000E+00  0.2400E-01  0.0000E+00
    -45.479  0.0000E+00  0.0000E+00  0.2400E-01  0.0000E+00
    -45.239  0.0000E+00  0.0000E+00  0.2400E-01  0.0000E+00
    -44.998  0.0000E+00  0.6476E-13  0.2400E-01  0.1559E-13
    -44.757  0.0000E+00  0.1340E-01  0.2400E-01  0.3226E-02
    -44.516  0.0000E+00  0.8627E-01  0.2400E-01  0.2400E-01
    -44.275  0.0000E+00  0.5005E-06  0.2400E-01  0.2400E-01
    -44.035  0.0000E+00  0.0000E+00  0.2400E-01  0.2400E-01
    -43.794  0.0000E+00  0.0000E+00  0.2400E-01  0.2400E-01
    -43.553  0.0000E+00  0.0000E+00  0.2400E-01  0.2400E-01
    -43.312  0.0000E+00  0.0000E+00  0.2400E-01  0.2400E-01
    -43.071  0.0000E+00  0.0000E+00  0.2400E-01  0.2400E-01
    -42.831  0.0000E+00  0.0000E+00  0.2400E-01  0.2400E-01
    -42.590  0.0000E+00  0.0000E+00  0.2400E-01  0.2400E-01
    -42.349  0.0000E+00  0.0000E+00  0.2400E-01  0.2400E-01
    -42.108  0.0000E+00  0.0000E+00  0.2400E-01  0.2400E-01
    -41.867  0.0000E+00  0.0000E+00  0.2400E-01  0.2400E-01
    -41.626  0.0000E+00  0.0000E+00  0.2400E-01  0.2400E-01
    -41.386  0.3653E-07  0.2742E-07  0.2400E-01  0.2400E-01
    -41.145  0.4636E-01  0.4598E-01  0.3516E-01  0.3507E-01
    -40.904  0.3473E-02  0.3851E-02  0.3600E-01  0.3600E-01
    -40.663  0.1660E-01  0.1659E-01  0.4000E-01  0.4000E-01
    -40.422  0.7523E-05  0.1727E-04  0.4000E-01  0.4000E-01
    -40.182  0.0000E+00  0.0000E+00  0.4000E-01  0.4000E-01
    -39.941  0.0000E+00  0.0000E+00  0.4000E-01  0.4000E-01
    -39.700  0.0000E+00  0.0000E+00  0.4000E-01  0.4000E-01
    -39.459  0.0000E+00  0.0000E+00  0.4000E-01  0.4000E-01
    -39.218  0.0000E+00  0.0000E+00  0.4000E-01  0.4000E-01
    -38.978  0.0000E+00  0.0000E+00  0.4000E-01  0.4000E-01
    -38.737  0.0000E+00  0.0000E+00  0.4000E-01  0.4000E-01
    -38.496  0.0000E+00  0.0000E+00  0.4000E-01  0.4000E-01
    -38.255  0.0000E+00  0.0000E+00  0.4000E-01  0.4000E-01
    -38.014  0.0000E+00  0.0000E+00  0.4000E-01  0.4000E-01
    -37.774  0.0000E+00  0.0000E+00  0.4000E-01  0.4000E-01
    -37.533  0.0000E+00  0.0000E+00  0.4000E-01  0.4000E-01
    -37.292  0.0000E+00  0.0000E+00  0.4000E-01  0.4000E-01
    -37.051  0.0000E+00  0.0000E+00  0.4000E-01  0.4000E-01
    -36.810  0.0000E+00  0.0000E+00  0.4000E-01  0.4000E-01
    -36.570  0.0000E+00  0.0000E+00  0.4000E-01  0.4000E-01
    -36.329  0.0000E+00  0.0000E+00  0.4000E-01  0.4000E-01
    -36.088  0.0000E+00  0.0000E+00  0.4000E-01  0.4000E-01
    -35.847  0.0000E+00  0.0000E+00  0.4000E-01  0.4000E-01
    -35.606  0.0000E+00  0.0000E+00  0.4000E-01  0.4000E-01
    -35.366  0.0000E+00  0.0000E+00  0.4000E-01  0.4000E-01
    -35.125  0.0000E+00  0.0000E+00  0.4000E-01  0.4000E-01
    -34.884  0.0000E+00  0.0000E+00  0.4000E-01  0.4000E-01
    -34.643  0.0000E+00  0.0000E+00  0.4000E-01  0.4000E-01
    -34.402  0.0000E+00  0.0000E+00  0.4000E-01  0.4000E-01
    -34.162  0.0000E+00  0.0000E+00  0.4000E-01  0.4000E-01
    -33.921  0.0000E+00  0.0000E+00  0.4000E-01  0.4000E-01
    -33.680  0.0000E+00  0.0000E+00  0.4000E-01  0.4000E-01
    -33.439  0.0000E+00  0.0000E+00  0.4000E-01  0.4000E-01
    -33.198  0.0000E+00  0.0000E+00  0.4000E-01  0.4000E-01
    -32.957  0.0000E+00  0.0000E+00  0.4000E-01  0.4000E-01
    -32.717  0.0000E+00  0.0000E+00  0.4000E-01  0.4000E-01
    -32.476  0.0000E+00  0.0000E+00  0.4000E-01  0.4000E-01
    -32.235  0.0000E+00  0.0000E+00  0.4000E-01  0.4000E-01
    -31.994  0.0000E+00  0.0000E+00  0.4000E-01  0.4000E-01
    -31.753  0.0000E+00  0.0000E+00  0.4000E-01  0.4000E-01
    -31.513  0.0000E+00  0.0000E+00  0.4000E-01  0.4000E-01
    -31.272  0.0000E+00  0.0000E+00  0.4000E-01  0.4000E-01
    -31.031  0.0000E+00  0.0000E+00  0.4000E-01  0.4000E-01
    -30.790  0.0000E+00  0.0000E+00  0.4000E-01  0.4000E-01
    -30.549  0.0000E+00  0.0000E+00  0.4000E-01  0.4000E-01
    -30.309  0.0000E+00  0.0000E+00  0.4000E-01  0.4000E-01
    -30.068  0.0000E+00  0.0000E+00  0.4000E-01  0.4000E-01
    -29.827  0.0000E+00  0.0000E+00  0.4000E-01  0.4000E-01
    -29.586  0.0000E+00  0.0000E+00  0.4000E-01  0.4000E-01
    -29.345  0.0000E+00  0.0000E+00  0.4000E-01  0.4000E-01
    -29.105  0.0000E+00  0.0000E+00  0.4000E-01  0.4000E-01
    -28.864  0.0000E+00  0.0000E+00  0.4000E-01  0.4000E-01
    -28.623  0.0000E+00  0.0000E+00  0.4000E-01  0.4000E-01
    -28.382  0.0000E+00  0.0000E+00  0.4000E-01  0.4000E-01
    -28.141  0.0000E+00  0.0000E+00  0.4000E-01  0.4000E-01
    -27.901  0.0000E+00  0.0000E+00  0.4000E-01  0.4000E-01
    -27.660  0.0000E+00  0.0000E+00  0.4000E-01  0.4000E-01
    -27.419  0.0000E+00  0.0000E+00  0.4000E-01  0.4000E-01
    -27.178  0.0000E+00  0.0000E+00  0.4000E-01  0.4000E-01
    -26.937  0.0000E+00  0.0000E+00  0.4000E-01  0.4000E-01
    -26.697  0.0000E+00  0.0000E+00  0.4000E-01  0.4000E-01
    -26.456  0.0000E+00  0.0000E+00  0.4000E-01  0.4000E-01
    -26.215  0.0000E+00  0.0000E+00  0.4000E-01  0.4000E-01
    -25.974  0.0000E+00  0.0000E+00  0.4000E-01  0.4000E-01
    -25.733  0.0000E+00  0.0000E+00  0.4000E-01  0.4000E-01
    -25.492  0.0000E+00  0.0000E+00  0.4000E-01  0.4000E-01
    -25.252  0.0000E+00  0.0000E+00  0.4000E-01  0.4000E-01
    -25.011  0.0000E+00  0.0000E+00  0.4000E-01  0.4000E-01
    -24.770  0.0000E+00  0.0000E+00  0.4000E-01  0.4000E-01
    -24.529  0.0000E+00  0.0000E+00  0.4000E-01  0.4000E-01
    -24.288  0.0000E+00  0.0000E+00  0.4000E-01  0.4000E-01
    -24.048  0.0000E+00  0.0000E+00  0.4000E-01  0.4000E-01
    -23.807  0.0000E+00  0.0000E+00  0.4000E-01  0.4000E-01
    -23.566  0.0000E+00  0.0000E+00  0.4000E-01  0.4000E-01
    -23.325  0.0000E+00  0.0000E+00  0.4000E-01  0.4000E-01
    -23.084  0.0000E+00  0.0000E+00  0.4000E-01  0.4000E-01
    -22.844  0.0000E+00  0.0000E+00  0.4000E-01  0.4000E-01
    -22.603  0.0000E+00  0.0000E+00  0.4000E-01  0.4000E-01
    -22.362  0.0000E+00  0.0000E+00  0.4000E-01  0.4000E-01
    -22.121  0.0000E+00  0.0000E+00  0.4000E-01  0.4000E-01
    -21.880  0.0000E+00  0.0000E+00  0.4000E-01  0.4000E-01
    -21.640  0.0000E+00  0.0000E+00  0.4000E-01  0.4000E-01
    -21.399  0.0000E+00  0.0000E+00  0.4000E-01  0.4000E-01
    -21.158  0.0000E+00  0.0000E+00  0.4000E-01  0.4000E-01
    -20.917  0.0000E+00  0.0000E+00  0.4000E-01  0.4000E-01
    -20.676  0.0000E+00  0.0000E+00  0.4000E-01  0.4000E-01
    -20.436  0.0000E+00  0.0000E+00  0.4000E-01  0.4000E-01
    -20.195  0.0000E+00  0.0000E+00  0.4000E-01  0.4000E-01
    -19.954  0.0000E+00  0.0000E+00  0.4000E-01  0.4000E-01
    -19.713  0.0000E+00  0.0000E+00  0.4000E-01  0.4000E-01
    -19.472  0.0000E+00  0.0000E+00  0.4000E-01  0.4000E-01
    -19.232  0.0000E+00  0.0000E+00  0.4000E-01  0.4000E-01
    -18.991  0.0000E+00  0.0000E+00  0.4000E-01  0.4000E-01
    -18.750  0.0000E+00  0.0000E+00  0.4000E-01  0.4000E-01
    -18.509  0.0000E+00  0.0000E+00  0.4000E-01  0.4000E-01
    -18.268  0.0000E+00  0.0000E+00  0.4000E-01  0.4000E-01
    -18.028  0.0000E+00  0.0000E+00  0.4000E-01  0.4000E-01
    -17.787  0.0000E+00  0.0000E+00  0.4000E-01  0.4000E-01
    -17.546  0.0000E+00  0.0000E+00  0.4000E-01  0.4000E-01
    -17.305  0.0000E+00  0.0000E+00  0.4000E-01  0.4000E-01
    -17.064  0.0000E+00  0.0000E+00  0.4000E-01  0.4000E-01
    -16.823  0.0000E+00  0.0000E+00  0.4000E-01  0.4000E-01
    -16.583  0.0000E+00  0.0000E+00  0.4000E-01  0.4000E-01
    -16.342  0.0000E+00  0.4269E-20  0.4000E-01  0.4000E-01
    -16.101  0.3827E-06  0.5844E-05  0.4000E-01  0.4000E-01
    -15.860  0.1768E-02  0.2398E-02  0.4043E-01  0.4058E-01
    -15.619  0.5752E-02  0.6003E-02  0.4181E-01  0.4202E-01
    -15.379  0.7727E-02  0.7319E-02  0.4367E-01  0.4379E-01
    -15.138  0.2340E-02  0.2952E-02  0.4424E-01  0.4450E-01
    -14.897  0.7593E-02  0.8182E-02  0.4606E-01  0.4647E-01
    -14.656  0.2269E-01  0.3286E-01  0.5153E-01  0.5438E-01
    -14.415  0.5124E-01  0.3993E-01  0.6387E-01  0.6400E-01
    -14.175  0.5542E-03  0.1296E-04  0.6400E-01  0.6400E-01
    -13.934  0.0000E+00  0.0000E+00  0.6400E-01  0.6400E-01
    -13.693  0.0000E+00  0.0000E+00  0.6400E-01  0.6400E-01
    -13.452  0.0000E+00  0.0000E+00  0.6400E-01  0.6400E-01
    -13.211  0.0000E+00  0.0000E+00  0.6400E-01  0.6400E-01
    -12.971  0.0000E+00  0.0000E+00  0.6400E-01  0.6400E-01
    -12.730  0.0000E+00  0.0000E+00  0.6400E-01  0.6400E-01
    -12.489  0.0000E+00  0.0000E+00  0.6400E-01  0.6400E-01
    -12.248  0.0000E+00  0.0000E+00  0.6400E-01  0.6400E-01
    -12.007  0.0000E+00  0.0000E+00  0.6400E-01  0.6400E-01
    -11.767  0.0000E+00  0.0000E+00  0.6400E-01  0.6400E-01
    -11.526  0.0000E+00  0.0000E+00  0.6400E-01  0.6400E-01
    -11.285  0.0000E+00  0.0000E+00  0.6400E-01  0.6400E-01
    -11.044  0.0000E+00  0.0000E+00  0.6400E-01  0.6400E-01
    -10.803  0.0000E+00  0.0000E+00  0.6400E-01  0.6400E-01
    -10.563  0.0000E+00  0.0000E+00  0.6400E-01  0.6400E-01
    -10.322  0.0000E+00  0.0000E+00  0.6400E-01  0.6400E-01
    -10.081  0.0000E+00  0.0000E+00  0.6400E-01  0.6400E-01
     -9.840  0.0000E+00  0.0000E+00  0.6400E-01  0.6400E-01
     -9.599  0.0000E+00  0.0000E+00  0.6400E-01  0.6400E-01
     -9.359  0.0000E+00  0.0000E+00  0.6400E-01  0.6400E-01
     -9.118  0.0000E+00  0.0000E+00  0.6400E-01  0.6400E-01
     -8.877  0.0000E+00  0.0000E+00  0.6400E-01  0.6400E-01
     -8.636  0.0000E+00  0.0000E+00  0.6400E-01  0.6400E-01
     -8.395  0.0000E+00  0.0000E+00  0.6400E-01  0.6400E-01
     -8.154  0.0000E+00  0.0000E+00  0.6400E-01  0.6400E-01
     -7.914  0.0000E+00  0.0000E+00  0.6400E-01  0.6400E-01
     -7.673  0.0000E+00  0.0000E+00  0.6400E-01  0.6400E-01
     -7.432  0.0000E+00  0.0000E+00  0.6400E-01  0.6400E-01
     -7.191  0.0000E+00  0.0000E+00  0.6400E-01  0.6400E-01
     -6.950  0.0000E+00  0.0000E+00  0.6400E-01  0.6400E-01
     -6.710  0.0000E+00  0.0000E+00  0.6400E-01  0.6400E-01
     -6.469  0.0000E+00  0.0000E+00  0.6400E-01  0.6400E-01
     -6.228  0.0000E+00  0.0000E+00  0.6400E-01  0.6400E-01
     -5.987  0.0000E+00  0.0000E+00  0.6400E-01  0.6400E-01
     -5.746  0.0000E+00  0.0000E+00  0.6400E-01  0.6400E-01
     -5.506  0.0000E+00  0.0000E+00  0.6400E-01  0.6400E-01
     -5.265  0.0000E+00  0.0000E+00  0.6400E-01  0.6400E-01
     -5.024  0.0000E+00  0.0000E+00  0.6400E-01  0.6400E-01
     -4.783  0.0000E+00  0.0000E+00  0.6400E-01  0.6400E-01
     -4.542  0.0000E+00  0.0000E+00  0.6400E-01  0.6400E-01
     -4.302  0.3804E-07  0.0000E+00  0.6400E-01  0.6400E-01
     -4.061  0.8348E-02  0.0000E+00  0.6601E-01  0.6400E-01
     -3.820  0.1126E-01  0.0000E+00  0.6872E-01  0.6400E-01
     -3.579  0.2208E-01  0.0000E+00  0.7404E-01  0.6400E-01
     -3.338  0.9423E-02  0.0000E+00  0.7631E-01  0.6400E-01
     -3.098  0.2033E-01  0.1026E-15  0.8120E-01  0.6400E-01
     -2.857  0.1732E-01  0.1890E-03  0.8537E-01  0.6405E-01
     -2.616  0.1621E-01  0.9636E-02  0.8928E-01  0.6637E-01
     -2.375  0.1840E-01  0.1324E-01  0.9371E-01  0.6955E-01
     -2.134  0.1269E-01  0.2473E-01  0.9676E-01  0.7551E-01
     -1.894  0.1319E-01  0.2397E-01  0.9994E-01  0.8128E-01
     -1.653  0.1030E-01  0.1455E-01  0.1024E+00  0.8479E-01
     -1.412  0.9655E-02  0.1837E-01  0.1047E+00  0.8921E-01
     -1.171  0.1477E-01  0.2017E-01  0.1083E+00  0.9407E-01
     -0.930  0.1479E-01  0.1434E-01  0.1119E+00  0.9752E-01
     -0.689  0.1382E-01  0.1206E-01  0.1152E+00  0.1004E+00
     -0.449  0.1144E-01  0.9600E-02  0.1179E+00  0.1027E+00
     -0.208  0.9856E-02  0.1362E-01  0.1203E+00  0.1060E+00
      0.033  0.1375E-01  0.1473E-01  0.1236E+00  0.1096E+00
      0.274  0.1582E-01  0.2018E-01  0.1274E+00  0.1144E+00
      0.515  0.2205E-01  0.1990E-01  0.1327E+00  0.1192E+00
      0.755  0.2444E-01  0.1416E-01  0.1386E+00  0.1226E+00
      0.996  0.2094E-01  0.2222E-01  0.1437E+00  0.1280E+00
      1.237  0.2776E-01  0.2081E-01  0.1504E+00  0.1330E+00
      1.478  0.1685E-01  0.1223E-01  0.1544E+00  0.1359E+00
      1.719  0.2254E-01  0.2701E-03  0.1598E+00  0.1360E+00
      1.959  0.6340E-03  0.0000E+00  0.1600E+00  0.1360E+00
      2.200  0.0000E+00  0.0000E+00  0.1600E+00  0.1360E+00
      2.441  0.0000E+00  0.0000E+00  0.1600E+00  0.1360E+00
      2.682  0.0000E+00  0.0000E+00  0.1600E+00  0.1360E+00
      2.923  0.0000E+00  0.0000E+00  0.1600E+00  0.1360E+00
      3.163  0.0000E+00  0.0000E+00  0.1600E+00  0.1360E+00
      3.404  0.1006E-09  0.0000E+00  0.1600E+00  0.1360E+00
      3.645  0.9844E-03  0.0000E+00  0.1602E+00  0.1360E+00
      3.886  0.1112E-01  0.0000E+00  0.1629E+00  0.1360E+00
      4.127  0.1669E-01  0.0000E+00  0.1669E+00  0.1360E+00
      4.367  0.1951E-01  0.0000E+00  0.1716E+00  0.1360E+00
      4.608  0.1684E-01  0.0000E+00  0.1757E+00  0.1360E+00
      4.849  0.1296E-02  0.3099E-05  0.1760E+00  0.1360E+00
      5.090  0.7285E-09  0.6033E-02  0.1760E+00  0.1375E+00
      5.331  0.0000E+00  0.2426E-01  0.1760E+00  0.1433E+00
      5.571  0.0000E+00  0.3212E-01  0.1760E+00  0.1510E+00
      5.812  0.0000E+00  0.3216E-01  0.1760E+00  0.1588E+00
      6.053  0.0000E+00  0.5860E-02  0.1760E+00  0.1602E+00
      6.294  0.0000E+00  0.1441E-01  0.1760E+00  0.1637E+00
      6.535  0.0000E+00  0.3408E-01  0.1760E+00  0.1719E+00
      6.775  0.0000E+00  0.1712E-01  0.1760E+00  0.1760E+00
      7.016  0.0000E+00  0.4545E-04  0.1760E+00  0.1760E+00
      7.257  0.0000E+00  0.0000E+00  0.1760E+00  0.1760E+00
      7.498  0.0000E+00  0.0000E+00  0.1760E+00  0.1760E+00
      7.739  0.0000E+00  0.0000E+00  0.1760E+00  0.1760E+00
      7.980  0.0000E+00  0.0000E+00  0.1760E+00  0.1760E+00
      8.220  0.0000E+00  0.0000E+00  0.1760E+00  0.1760E+00
      8.461  0.0000E+00  0.0000E+00  0.1760E+00  0.1760E+00
      8.702  0.0000E+00  0.0000E+00  0.1760E+00  0.1760E+00
      8.943  0.3026E-05  0.2433E-18  0.1760E+00  0.1760E+00
      9.184  0.7556E-04  0.1246E-04  0.1760E+00  0.1760E+00
      9.424  0.6054E-03  0.8119E-04  0.1762E+00  0.1760E+00
      9.665  0.7302E-03  0.6204E-03  0.1763E+00  0.1762E+00
      9.906  0.6080E-03  0.8669E-03  0.1765E+00  0.1764E+00
     10.147  0.1291E-02  0.7517E-03  0.1768E+00  0.1766E+00
     10.388  0.1859E-02  0.1721E-02  0.1772E+00  0.1770E+00
     10.628  0.3090E-02  0.1856E-02  0.1780E+00  0.1774E+00
     10.869  0.5140E-02  0.5073E-02  0.1792E+00  0.1786E+00
     11.110  0.6832E-02  0.5471E-02  0.1809E+00  0.1800E+00
     11.351  0.7231E-02  0.7517E-02  0.1826E+00  0.1818E+00
     11.592  0.4547E-02  0.5887E-02  0.1837E+00  0.1832E+00
     11.832  0.3877E-02  0.4251E-02  0.1846E+00  0.1842E+00
     12.073  0.6285E-02  0.5504E-02  0.1862E+00  0.1855E+00
     12.314  0.6476E-02  0.5717E-02  0.1877E+00  0.1869E+00
     12.555  0.5736E-02  0.5711E-02  0.1891E+00  0.1883E+00
     12.796  0.6375E-02  0.6662E-02  0.1906E+00  0.1899E+00
     13.036  0.3253E-02  0.5057E-02  0.1914E+00  0.1911E+00
     13.277  0.3453E-02  0.2238E-02  0.1922E+00  0.1917E+00
     13.518  0.3195E-02  0.3813E-02  0.1930E+00  0.1926E+00
     13.759  0.3966E-02  0.2706E-02  0.1940E+00  0.1932E+00
     14.000  0.7319E-02  0.4484E-02  0.1957E+00  0.1943E+00
     14.240  0.6733E-02  0.8646E-02  0.1974E+00  0.1964E+00
     14.481  0.5928E-02  0.5259E-02  0.1988E+00  0.1977E+00
     14.722  0.6706E-02  0.6655E-02  0.2004E+00  0.1993E+00
     14.963  0.1435E-01  0.1018E-01  0.2039E+00  0.2017E+00
     15.204  0.1689E-01  0.1654E-01  0.2079E+00  0.2057E+00
     15.444  0.1446E-01  0.8146E-02  0.2114E+00  0.2076E+00
     15.685  0.1256E-01  0.1355E-01  0.2144E+00  0.2109E+00
     15.926  0.1005E-01  0.9152E-02  0.2168E+00  0.2131E+00
     16.167  0.9197E-02  0.1049E-01  0.2191E+00  0.2156E+00
     16.408  0.4229E-02  0.9954E-02  0.2201E+00  0.2180E+00
     16.649  0.7692E-02  0.6461E-02  0.2219E+00  0.2196E+00
     16.889  0.7897E-02  0.2252E-02  0.2238E+00  0.2201E+00
     17.130  0.2524E-03  0.4914E-02  0.2239E+00  0.2213E+00
     17.371  0.4461E-03  0.9581E-02  0.2240E+00  0.2236E+00
     17.612  0.0000E+00  0.1548E-02  0.2240E+00  0.2240E+00
     17.853  0.0000E+00  0.1318E-08  0.2240E+00  0.2240E+00
     18.093  0.0000E+00  0.0000E+00  0.2240E+00  0.2240E+00
     18.334  0.0000E+00  0.0000E+00  0.2240E+00  0.2240E+00
     18.575  0.0000E+00  0.0000E+00  0.2240E+00  0.2240E+00
     18.816  0.0000E+00  0.0000E+00  0.2240E+00  0.2240E+00
     19.057  0.0000E+00  0.0000E+00  0.2240E+00  0.2240E+00
     19.297  0.0000E+00  0.0000E+00  0.2240E+00  0.2240E+00
     19.538  0.0000E+00  0.0000E+00  0.2240E+00  0.2240E+00
     19.779  0.0000E+00  0.0000E+00  0.2240E+00  0.2240E+00
     20.020  0.0000E+00  0.0000E+00  0.2240E+00  0.2240E+00
     20.261  0.0000E+00  0.0000E+00  0.2240E+00  0.2240E+00
     20.501  0.0000E+00  0.0000E+00  0.2240E+00  0.2240E+00
     20.742  0.0000E+00  0.0000E+00  0.2240E+00  0.2240E+00
