   24   24  500    2
  0.8144474E+01  0.4898159E-09  0.4898161E-09  0.9533076E-09  0.2000000E-15
  1.000000000000000E-004
  CAR 
 OPT                                     
    148     56    112
 
  0.0000000E+00  0.0000000E+00  0.0000000E+00  0.9259259E-02
      1        -48.208944      -44.751944   1.000000   1.000000
      2        -48.208921      -44.751899   1.000000   1.000000
      3        -48.208907      -44.748017   1.000000   1.000000
      4        -48.208873      -44.747983   1.000000   1.000000
      5        -48.170315      -44.683057   1.000000   1.000000
      6        -48.170123      -44.682792   1.000000   1.000000
      7        -48.152403      -44.675476   1.000000   1.000000
      8        -48.152359      -44.675431   1.000000   1.000000
      9        -48.148594      -44.673324   1.000000   1.000000
     10        -48.148530      -44.673165   1.000000   1.000000
     11        -48.145907      -44.656619   1.000000   1.000000
     12        -48.145844      -44.656597   1.000000   1.000000
     13        -41.229661      -41.227653   1.000000   1.000000
     14        -41.228478      -41.226267   1.000000   1.000000
     15        -41.203986      -41.201996   1.000000   1.000000
     16        -41.202906      -41.200778   1.000000   1.000000
     17        -41.178313      -41.176179   1.000000   1.000000
     18        -41.177232      -41.174964   1.000000   1.000000
     19        -40.780901      -40.772510   1.000000   1.000000
     20        -40.780503      -40.772118   1.000000   1.000000
     21        -16.008923      -16.046737   1.000000   1.000000
     22        -15.859299      -15.896118   1.000000   1.000000
     23        -14.821247      -14.900963   1.000000   1.000000
     24        -14.620392      -14.693165   1.000000   1.000000
     25        -14.553695      -14.586435   1.000000   1.000000
     26        -14.544264      -14.584786   1.000000   1.000000
     27        -14.540605      -14.583816   1.000000   1.000000
     28        -14.532932      -14.582957   1.000000   1.000000
     29        -14.531995      -14.577040   1.000000   1.000000
     30        -14.530713      -14.573049   1.000000   1.000000
     31        -14.527780      -14.569387   1.000000   1.000000
     32        -14.524330      -14.566696   1.000000   1.000000
     33         -4.146747       -2.750716   1.000000   1.000000
     34         -3.662031       -2.547824   1.000000   1.000000
     35         -3.641131       -2.545892   1.000000   1.000000
     36         -3.637636       -2.068090   1.000000   1.000000
     37         -3.625596       -2.067769   1.000000   1.000000
     38         -3.617734       -2.057511   1.000000   1.000000
     39         -3.274226       -2.044770   1.000000   1.000000
     40         -3.272608       -1.870115   1.000000   1.000000
     41         -3.270256       -1.868702   1.000000   1.000000
     42         -3.260992       -1.839417   1.000000   1.000000
     43         -3.234257       -1.838619   1.000000   1.000000
     44         -3.232250       -1.638921   1.000000   1.000000
     45         -2.523739       -1.450007   1.000000   1.000000
     46         -2.485590       -1.445419   1.000000   1.000000
     47         -2.477332       -1.362129   1.000000   1.000000
     48         -2.476453       -1.322772   1.000000   1.000000
     49         -1.714280       -0.904604   1.000000   1.000000
     50         -1.703170       -0.876506   1.000000   1.000000
     51         -1.587456       -0.777122   1.000000   1.000000
     52         -1.574747       -0.768884   1.000000   1.000000
     53         -1.214271       -0.519646   1.000000   1.000000
     54         -1.199563       -0.510403   1.000000   1.000000
     55         -1.196919       -0.399992   1.000000   1.000000
     56         -0.956231       -0.396596   1.000000   1.000000
     57         -0.953351       -0.235163   1.000000   1.000000
     58         -0.951110        0.347885   1.000000   1.000000
     59         -0.167038        0.372110   1.000000   1.000000
     60         -0.155846        0.976730   1.000000   1.000000
     61         -0.117938        1.001547   1.000000   1.000000
     62         -0.058885        1.025879   1.000000   1.000000
     63         -0.056381        1.070250   1.000000   1.000000
     64         -0.028939        1.313370   1.000000   1.000000
     65         -0.028338        1.332587   1.000000   1.000000
     66          0.400618        1.341146   1.000000   1.000000
     67          0.445934        1.405372   1.000000   1.000000
     68          0.492129        1.418620   1.000000   1.000000
     69          0.547119        5.336300   1.000000   0.000000
     70          0.561042        5.338068   1.000000   0.000000
     71          0.875391        5.339519   1.000000   0.000000
     72          1.092050        5.353192   1.000000   0.000000
     73          1.122158        5.359112   1.000000   0.000000
     74          1.176269        5.367382   1.000000   0.000000
     75          1.196567        5.566172   1.000000   0.000000
     76          1.448582        5.604493   1.000000   0.000000
     77          1.539491        5.624510   1.000000   0.000000
     78          1.553211        5.633374   1.000000   0.000000
     79          1.600157        5.645809   1.000000   0.000000
     80          1.620013        5.666970   1.000000   0.000000
     81          3.984645        6.350469   0.000000   0.000000
     82          3.988283        6.359728   0.000000   0.000000
     83          3.999561        6.377830   0.000000   0.000000
     84          4.014187        6.383821   0.000000   0.000000
     85          4.514296        6.600616   0.000000   0.000000
     86          4.534232        6.614379   0.000000   0.000000
     87          4.541353        6.619613   0.000000   0.000000
     88          4.577760        6.640157   0.000000   0.000000
     89          9.004904        9.218401   0.000000   0.000000
     90         10.250514       10.490437   0.000000   0.000000
     91         10.579940       10.704024   0.000000   0.000000
     92         10.749691       10.833472   0.000000   0.000000
     93         12.792976       12.910177   0.000000   0.000000
     94         12.828400       12.946137   0.000000   0.000000
     95         13.150024       13.267542   0.000000   0.000000
     96         13.194751       13.286715   0.000000   0.000000
     97         13.197354       13.300692   0.000000   0.000000
     98         13.270572       13.326789   0.000000   0.000000
     99         13.279187       13.447953   0.000000   0.000000
    100         13.289860       13.538125   0.000000   0.000000
    101         15.007047       15.323133   0.000000   0.000000
    102         15.123617       15.329408   0.000000   0.000000
    103         15.262358       15.413825   0.000000   0.000000
    104         15.374852       15.421794   0.000000   0.000000
    105         15.376368       15.604048   0.000000   0.000000
    106         15.398484       15.691353   0.000000   0.000000
    107         15.460190       15.724232   0.000000   0.000000
    108         15.901093       16.027617   0.000000   0.000000
    109         16.016665       16.081284   0.000000   0.000000
    110         16.297372       16.344338   0.000000   0.000000
    111         17.194162       17.449685   0.000000   0.000000
    112         17.194695       17.458508   0.000000   0.000000
 
  0.1666667E+00 -0.2688145E-16 -0.2178998E-14  0.1851852E-01
      1        -48.210142      -44.751151   1.000000   1.000000
      2        -48.210106      -44.751137   1.000000   1.000000
      3        -48.205824      -44.746655   1.000000   1.000000
      4        -48.205781      -44.746614   1.000000   1.000000
      5        -48.169253      -44.683427   1.000000   1.000000
      6        -48.169108      -44.683300   1.000000   1.000000
      7        -48.153639      -44.676690   1.000000   1.000000
      8        -48.153602      -44.676614   1.000000   1.000000
      9        -48.149978      -44.672712   1.000000   1.000000
     10        -48.149939      -44.672624   1.000000   1.000000
     11        -48.146249      -44.657837   1.000000   1.000000
     12        -48.146204      -44.657816   1.000000   1.000000
     13        -41.227679      -41.225671   1.000000   1.000000
     14        -41.226501      -41.224302   1.000000   1.000000
     15        -41.205094      -41.203102   1.000000   1.000000
     16        -41.204014      -41.201883   1.000000   1.000000
     17        -41.179199      -41.177061   1.000000   1.000000
     18        -41.178117      -41.175846   1.000000   1.000000
     19        -40.780822      -40.772403   1.000000   1.000000
     20        -40.780507      -40.772092   1.000000   1.000000
     21        -15.927000      -15.965829   1.000000   1.000000
     22        -15.781363      -15.819137   1.000000   1.000000
     23        -14.806597      -14.878810   1.000000   1.000000
     24        -14.643173      -14.701452   1.000000   1.000000
     25        -14.619973      -14.681242   1.000000   1.000000
     26        -14.613293      -14.670692   1.000000   1.000000
     27        -14.587122      -14.629665   1.000000   1.000000
     28        -14.584270      -14.624078   1.000000   1.000000
     29        -14.544019      -14.578225   1.000000   1.000000
     30        -14.528611      -14.564590   1.000000   1.000000
     31        -14.511654      -14.557245   1.000000   1.000000
     32        -14.501423      -14.542617   1.000000   1.000000
     33         -4.071221       -2.672843   1.000000   1.000000
     34         -3.807620       -2.632565   1.000000   1.000000
     35         -3.778108       -2.602210   1.000000   1.000000
     36         -3.696258       -2.156539   1.000000   1.000000
     37         -3.684272       -2.146512   1.000000   1.000000
     38         -3.602183       -2.137577   1.000000   1.000000
     39         -3.319988       -2.114800   1.000000   1.000000
     40         -3.273433       -1.930786   1.000000   1.000000
     41         -3.171199       -1.884402   1.000000   1.000000
     42         -3.151210       -1.714608   1.000000   1.000000
     43         -3.084376       -1.637526   1.000000   1.000000
     44         -3.076178       -1.569241   1.000000   1.000000
     45         -2.544440       -1.501233   1.000000   1.000000
     46         -2.506658       -1.373088   1.000000   1.000000
     47         -2.389698       -1.343918   1.000000   1.000000
     48         -2.355976       -1.281448   1.000000   1.000000
     49         -1.913645       -1.002086   1.000000   1.000000
     50         -1.809632       -0.961422   1.000000   1.000000
     51         -1.657079       -0.676808   1.000000   1.000000
     52         -1.607227       -0.645371   1.000000   1.000000
     53         -1.157339       -0.420595   1.000000   1.000000
     54         -1.148290       -0.284724   1.000000   1.000000
     55         -1.029636       -0.217138   1.000000   1.000000
     56         -0.992477       -0.129043   1.000000   1.000000
     57         -0.821391        0.035349   1.000000   1.000000
     58         -0.783355        0.416708   1.000000   1.000000
     59         -0.560445        0.440770   1.000000   1.000000
     60         -0.539809        0.779062   1.000000   1.000000
     61         -0.122275        0.890191   1.000000   1.000000
     62         -0.094426        0.967810   1.000000   1.000000
     63          0.008468        0.972048   1.000000   1.000000
     64          0.231114        0.993989   1.000000   1.000000
     65          0.309412        1.026334   1.000000   1.000000
     66          0.397305        1.257595   1.000000   1.000000
     67          0.439298        1.310512   1.000000   1.000000
     68          0.526939        1.442596   1.000000   1.000000
     69          0.547958        5.205582   1.000000   0.000000
     70          0.750008        5.219670   1.000000   0.000000
     71          0.805175        5.375999   1.000000   0.000000
     72          1.018788        5.386558   1.000000   0.000000
     73          1.114264        5.438154   1.000000   0.000000
     74          1.144672        5.461423   1.000000   0.000000
     75          1.239074        5.564006   1.000000   0.000000
     76          1.399803        5.583817   1.000000   0.000000
     77          1.479713        5.595311   1.000000   0.000000
     78          1.525093        5.645678   1.000000   0.000000
     79          1.544108        5.697412   1.000000   0.000000
     80          1.643674        5.702241   1.000000   0.000000
     81          3.922514        6.308971   0.000000   0.000000
     82          3.982695        6.347643   0.000000   0.000000
     83          3.989153        6.352635   0.000000   0.000000
     84          4.079944        6.408346   0.000000   0.000000
     85          4.353945        6.493913   0.000000   0.000000
     86          4.391309        6.500801   0.000000   0.000000
     87          4.503183        6.589241   0.000000   0.000000
     88          4.537686        6.606545   0.000000   0.000000
     89          9.351809        9.545752   0.000000   0.000000
     90         10.626412       10.827739   0.000000   0.000000
     91         10.979320       11.105158   0.000000   0.000000
     92         11.019152       11.112171   0.000000   0.000000
     93         12.173840       12.283693   0.000000   0.000000
     94         12.431484       12.558833   0.000000   0.000000
     95         12.487691       12.594961   0.000000   0.000000
     96         12.727033       12.837600   0.000000   0.000000
     97         13.571355       13.836062   0.000000   0.000000
     98         13.800942       13.967664   0.000000   0.000000
     99         14.006116       14.116799   0.000000   0.000000
    100         14.085438       14.209373   0.000000   0.000000
    101         14.678136       14.797756   0.000000   0.000000
    102         14.928546       15.051302   0.000000   0.000000
    103         14.938064       15.058180   0.000000   0.000000
    104         15.075798       15.201311   0.000000   0.000000
    105         15.336432       15.565754   0.000000   0.000000
    106         15.655273       15.902535   0.000000   0.000000
    107         15.821502       16.140009   0.000000   0.000000
    108         16.055822       16.324774   0.000000   0.000000
    109         16.085733       16.330882   0.000000   0.000000
    110         16.193580       16.338349   0.000000   0.000000
    111         16.721286       17.173224   0.000000   0.000000
    112         16.838309       17.291455   0.000000   0.000000
 
  0.0000000E+00 -0.1666667E+00  0.3715908E-14  0.1851852E-01
      1        -48.210130      -44.751126   1.000000   1.000000
      2        -48.210077      -44.751089   1.000000   1.000000
      3        -48.205836      -44.746679   1.000000   1.000000
      4        -48.205811      -44.746665   1.000000   1.000000
      5        -48.169252      -44.683444   1.000000   1.000000
      6        -48.169107      -44.683320   1.000000   1.000000
      7        -48.153637      -44.676662   1.000000   1.000000
      8        -48.153601      -44.676581   1.000000   1.000000
      9        -48.149985      -44.672722   1.000000   1.000000
     10        -48.149945      -44.672635   1.000000   1.000000
     11        -48.146243      -44.657837   1.000000   1.000000
     12        -48.146199      -44.657817   1.000000   1.000000
     13        -41.227679      -41.225671   1.000000   1.000000
     14        -41.226501      -41.224302   1.000000   1.000000
     15        -41.205094      -41.203102   1.000000   1.000000
     16        -41.204014      -41.201883   1.000000   1.000000
     17        -41.179199      -41.177061   1.000000   1.000000
     18        -41.178117      -41.175846   1.000000   1.000000
     19        -40.780822      -40.772403   1.000000   1.000000
     20        -40.780507      -40.772092   1.000000   1.000000
     21        -15.926995      -15.965826   1.000000   1.000000
     22        -15.781357      -15.819132   1.000000   1.000000
     23        -14.806602      -14.878812   1.000000   1.000000
     24        -14.643241      -14.701507   1.000000   1.000000
     25        -14.620040      -14.681246   1.000000   1.000000
     26        -14.613324      -14.670756   1.000000   1.000000
     27        -14.587066      -14.629638   1.000000   1.000000
     28        -14.584236      -14.624022   1.000000   1.000000
     29        -14.544032      -14.578260   1.000000   1.000000
     30        -14.528589      -14.564556   1.000000   1.000000
     31        -14.511637      -14.557199   1.000000   1.000000
     32        -14.501379      -14.542628   1.000000   1.000000
     33         -4.071225       -2.672843   1.000000   1.000000
     34         -3.807636       -2.632557   1.000000   1.000000
     35         -3.778098       -2.602193   1.000000   1.000000
     36         -3.696258       -2.156516   1.000000   1.000000
     37         -3.684284       -2.146526   1.000000   1.000000
     38         -3.602155       -2.137581   1.000000   1.000000
     39         -3.320036       -2.114811   1.000000   1.000000
     40         -3.273482       -1.930796   1.000000   1.000000
     41         -3.171137       -1.884386   1.000000   1.000000
     42         -3.151175       -1.714606   1.000000   1.000000
     43         -3.084383       -1.637579   1.000000   1.000000
     44         -3.076175       -1.569242   1.000000   1.000000
     45         -2.544515       -1.501300   1.000000   1.000000
     46         -2.506715       -1.373071   1.000000   1.000000
     47         -2.389628       -1.343925   1.000000   1.000000
     48         -2.355888       -1.281378   1.000000   1.000000
     49         -1.913653       -1.002069   1.000000   1.000000
     50         -1.809675       -0.961476   1.000000   1.000000
     51         -1.657042       -0.676766   1.000000   1.000000
     52         -1.607158       -0.645357   1.000000   1.000000
     53         -1.157368       -0.420580   1.000000   1.000000
     54         -1.148304       -0.284722   1.000000   1.000000
     55         -1.029624       -0.217147   1.000000   1.000000
     56         -0.992470       -0.129050   1.000000   1.000000
     57         -0.821395        0.035361   1.000000   1.000000
     58         -0.783383        0.416698   1.000000   1.000000
     59         -0.560469        0.440753   1.000000   1.000000
     60         -0.539797        0.779099   1.000000   1.000000
     61         -0.122302        0.890185   1.000000   1.000000
     62         -0.094501        0.967785   1.000000   1.000000
     63          0.008484        0.972023   1.000000   1.000000
     64          0.231133        0.993981   1.000000   1.000000
     65          0.309429        1.026307   1.000000   1.000000
     66          0.397317        1.257633   1.000000   1.000000
     67          0.439301        1.310550   1.000000   1.000000
     68          0.526931        1.442585   1.000000   1.000000
     69          0.547951        5.205554   1.000000   0.000000
     70          0.750032        5.219640   1.000000   0.000000
     71          0.805182        5.376020   1.000000   0.000000
     72          1.018800        5.386593   1.000000   0.000000
     73          1.114249        5.438169   1.000000   0.000000
     74          1.144657        5.461439   1.000000   0.000000
     75          1.239089        5.563986   1.000000   0.000000
     76          1.399769        5.583790   1.000000   0.000000
     77          1.479681        5.595324   1.000000   0.000000
     78          1.525114        5.645679   1.000000   0.000000
     79          1.544147        5.697409   1.000000   0.000000
     80          1.643694        5.702245   1.000000   0.000000
     81          3.922515        6.308981   0.000000   0.000000
     82          3.982683        6.347635   0.000000   0.000000
     83          3.989156        6.352633   0.000000   0.000000
     84          4.079956        6.408356   0.000000   0.000000
     85          4.353946        6.493904   0.000000   0.000000
     86          4.391320        6.500800   0.000000   0.000000
     87          4.503173        6.589243   0.000000   0.000000
     88          4.537670        6.606545   0.000000   0.000000
     89          9.351811        9.545754   0.000000   0.000000
     90         10.626417       10.827746   0.000000   0.000000
     91         10.979322       11.105160   0.000000   0.000000
     92         11.019152       11.112170   0.000000   0.000000
     93         12.173832       12.283687   0.000000   0.000000
     94         12.431489       12.558832   0.000000   0.000000
     95         12.487693       12.594964   0.000000   0.000000
     96         12.727016       12.837592   0.000000   0.000000
     97         13.571369       13.836077   0.000000   0.000000
     98         13.800952       13.967663   0.000000   0.000000
     99         14.006116       14.116797   0.000000   0.000000
    100         14.085440       14.209379   0.000000   0.000000
    101         14.678139       14.797787   0.000000   0.000000
    102         14.928538       15.051265   0.000000   0.000000
    103         14.938049       15.058139   0.000000   0.000000
    104         15.075832       15.201388   0.000000   0.000000
    105         15.336411       15.565715   0.000000   0.000000
    106         15.655266       15.902520   0.000000   0.000000
    107         15.821484       16.139984   0.000000   0.000000
    108         16.055800       16.324776   0.000000   0.000000
    109         16.085723       16.330866   0.000000   0.000000
    110         16.193613       16.338391   0.000000   0.000000
    111         16.721300       17.173242   0.000000   0.000000
    112         16.838312       17.291469   0.000000   0.000000
 
  0.3333333E+00 -0.2736521E-16 -0.2054282E-14  0.1851852E-01
      1        -48.212442      -44.753501   1.000000   1.000000
      2        -48.212407      -44.753491   1.000000   1.000000
      3        -48.198249      -44.738297   1.000000   1.000000
      4        -48.198205      -44.738260   1.000000   1.000000
      5        -48.166620      -44.689803   1.000000   1.000000
      6        -48.166529      -44.689773   1.000000   1.000000
      7        -48.157993      -44.676771   1.000000   1.000000
      8        -48.157938      -44.676647   1.000000   1.000000
      9        -48.155757      -44.669267   1.000000   1.000000
     10        -48.155718      -44.669215   1.000000   1.000000
     11        -48.144105      -44.661032   1.000000   1.000000
     12        -48.144064      -44.660987   1.000000   1.000000
     13        -41.222780      -41.220775   1.000000   1.000000
     14        -41.221653      -41.219488   1.000000   1.000000
     15        -41.207998      -41.205995   1.000000   1.000000
     16        -41.206919      -41.204778   1.000000   1.000000
     17        -41.181167      -41.179020   1.000000   1.000000
     18        -41.180086      -41.177806   1.000000   1.000000
     19        -40.780691      -40.772215   1.000000   1.000000
     20        -40.780477      -40.772006   1.000000   1.000000
     21        -15.703686      -15.744954   1.000000   1.000000
     22        -15.578718      -15.618452   1.000000   1.000000
     23        -14.893193      -14.952427   1.000000   1.000000
     24        -14.833067      -14.888885   1.000000   1.000000
     25        -14.766657      -14.819921   1.000000   1.000000
     26        -14.656257      -14.691764   1.000000   1.000000
     27        -14.623323      -14.671218   1.000000   1.000000
     28        -14.610477      -14.642146   1.000000   1.000000
     29        -14.560195      -14.614574   1.000000   1.000000
     30        -14.534755      -14.578866   1.000000   1.000000
     31        -14.499752      -14.559040   1.000000   1.000000
     32        -14.493606      -14.536728   1.000000   1.000000
     33         -4.038304       -2.738557   1.000000   1.000000
     34         -4.031920       -2.722940   1.000000   1.000000
     35         -3.830467       -2.442504   1.000000   1.000000
     36         -3.794968       -2.293480   1.000000   1.000000
     37         -3.790000       -2.236295   1.000000   1.000000
     38         -3.497068       -2.129612   1.000000   1.000000
     39         -3.209522       -2.032761   1.000000   1.000000
     40         -3.183781       -1.995139   1.000000   1.000000
     41         -3.025233       -1.983367   1.000000   1.000000
     42         -3.005494       -1.850743   1.000000   1.000000
     43         -2.818282       -1.572898   1.000000   1.000000
     44         -2.806092       -1.539372   1.000000   1.000000
     45         -2.613113       -1.357978   1.000000   1.000000
     46         -2.492017       -1.189758   1.000000   1.000000
     47         -2.258093       -1.139525   1.000000   1.000000
     48         -2.195879       -1.009363   1.000000   1.000000
     49         -2.180502       -0.970617   1.000000   1.000000
     50         -2.061841       -0.907093   1.000000   1.000000
     51         -1.700026       -0.679423   1.000000   1.000000
     52         -1.663789       -0.411051   1.000000   1.000000
     53         -1.351374       -0.087794   1.000000   1.000000
     54         -1.307683       -0.019515   1.000000   1.000000
     55         -1.219348        0.034780   1.000000   1.000000
     56         -1.189569        0.135096   1.000000   1.000000
     57         -0.753308        0.203579   1.000000   1.000000
     58         -0.596651        0.248600   1.000000   1.000000
     59         -0.408150        0.310273   1.000000   1.000000
     60         -0.250141        0.313212   1.000000   1.000000
     61         -0.178661        0.501181   1.000000   1.000000
     62         -0.021342        0.745217   1.000000   1.000000
     63          0.081549        0.831487   1.000000   1.000000
     64          0.188718        0.876359   1.000000   1.000000
     65          0.272294        0.902964   1.000000   1.000000
     66          0.330947        1.200754   1.000000   1.000000
     67          0.600877        1.302625   1.000000   1.000000
     68          0.667534        1.405961   1.000000   1.000000
     69          0.672176        5.113718   1.000000   0.000000
     70          0.858292        5.115681   1.000000   0.000000
     71          0.926095        5.209908   1.000000   0.000000
     72          0.990287        5.260355   1.000000   0.000000
     73          1.091697        5.400858   1.000000   0.000000
     74          1.095473        5.413406   1.000000   0.000000
     75          1.199391        5.557025   1.000000   0.000000
     76          1.281600        5.619428   1.000000   0.000000
     77          1.360199        5.732127   1.000000   0.000000
     78          1.480740        5.755446   1.000000   0.000000
     79          1.536576        5.767091   1.000000   0.000000
     80          1.596501        5.767943   1.000000   0.000000
     81          3.807281        6.187585   0.000000   0.000000
     82          3.944636        6.270755   0.000000   0.000000
     83          3.956501        6.326634   0.000000   0.000000
     84          4.077168        6.353592   0.000000   0.000000
     85          4.279526        6.466097   0.000000   0.000000
     86          4.286929        6.477636   0.000000   0.000000
     87          4.419627        6.537880   0.000000   0.000000
     88          4.459133        6.565957   0.000000   0.000000
     89         10.153352       10.312021   0.000000   0.000000
     90         11.170668       11.264239   0.000000   0.000000
     91         11.388276       11.483440   0.000000   0.000000
     92         11.525552       11.692316   0.000000   0.000000
     93         11.850312       11.946314   0.000000   0.000000
     94         11.920185       12.022385   0.000000   0.000000
     95         12.111000       12.254183   0.000000   0.000000
     96         12.682291       12.858957   0.000000   0.000000
     97         13.637084       13.802177   0.000000   0.000000
     98         14.362344       14.530453   0.000000   0.000000
     99         14.382956       14.531135   0.000000   0.000000
    100         14.631223       14.717535   0.000000   0.000000
    101         14.764666       14.841500   0.000000   0.000000
    102         14.830785       14.948396   0.000000   0.000000
    103         14.947628       15.147059   0.000000   0.000000
    104         14.957676       15.174912   0.000000   0.000000
    105         15.129626       15.449220   0.000000   0.000000
    106         15.347986       15.597310   0.000000   0.000000
    107         15.557414       16.061435   0.000000   0.000000
    108         15.788636       16.135505   0.000000   0.000000
    109         16.036328       16.383354   0.000000   0.000000
    110         16.088852       16.421855   0.000000   0.000000
    111         16.654059       17.171658   0.000000   0.000000
    112         16.699179       17.185467   0.000000   0.000000
 
  0.0000000E+00 -0.3333333E+00  0.5114225E-14  0.1851852E-01
      1        -48.212432      -44.753482   1.000000   1.000000
      2        -48.212380      -44.753443   1.000000   1.000000
      3        -48.198262      -44.738324   1.000000   1.000000
      4        -48.198237      -44.738305   1.000000   1.000000
      5        -48.166617      -44.689826   1.000000   1.000000
      6        -48.166526      -44.689810   1.000000   1.000000
      7        -48.158007      -44.676723   1.000000   1.000000
      8        -48.157953      -44.676594   1.000000   1.000000
      9        -48.155746      -44.669280   1.000000   1.000000
     10        -48.155702      -44.669231   1.000000   1.000000
     11        -48.144102      -44.661034   1.000000   1.000000
     12        -48.144063      -44.660990   1.000000   1.000000