 running on   56 total cores
 distrk:  each k-point on   56 cores,    1 groups
 distr:  one band on    1 cores,   56 groups
 vasp.6.3.2 27Jun22 (build May 08 2025 20:43:02) complex                        
  
 POSCAR found type information on POSCAR MnO Li
 POSCAR found :  3 types and      24 ions
 -----------------------------------------------------------------------------
|                                                                             |
|           W    W    AA    RRRRR   N    N  II  N    N   GGGG   !!!           |
|           W    W   A  A   R    R  NN   N  II  NN   N  G    G  !!!           |
|           W    W  A    A  R    R  N N  N  II  N N  N  G       !!!           |
|           W WW W  AAAAAA  RRRRR   N  N N  II  N  N N  G  GGG   !            |
|           WW  WW  A    A  R   R   N   NN  II  N   NN  G    G                |
|           W    W  A    A  R    R  N    N  II  N    N   GGGG   !!!           |
|                                                                             |
|     You use a magnetic or noncollinear calculation, but did not specify     |
|     the initial magnetic moment with the MAGMOM tag. Note that a            |
|     default of 1 will be used for all atoms. This ferromagnetic setup       |
|     may break the symmetry of the crystal, in particular it may rule        |
|     out finding an antiferromagnetic solution. Thence, we recommend         |
|     setting the initial magnetic moment manually or verifying carefully     |
|     that this magnetic setup is desired.                                    |
|                                                                             |
 -----------------------------------------------------------------------------

 scaLAPACK will be used
 -----------------------------------------------------------------------------
|                                                                             |
|           W    W    AA    RRRRR   N    N  II  N    N   GGGG   !!!           |
|           W    W   A  A   R    R  NN   N  II  NN   N  G    G  !!!           |
|           W    W  A    A  R    R  N N  N  II  N N  N  G       !!!           |
|           W WW W  AAAAAA  RRRRR   N  N N  II  N  N N  G  GGG   !            |
|           WW  WW  A    A  R   R   N   NN  II  N   NN  G    G                |
|           W    W  A    A  R    R  N    N  II  N    N   GGGG   !!!           |
|                                                                             |
|     For optimal performance we recommend to set                             |
|       NCORE = 2 up to number-of-cores-per-socket                            |
|     NCORE specifies how many cores store one orbital (NPAR=cpu/NCORE).      |
|     This setting can greatly improve the performance of VASP for DFT.       |
|     The default, NCORE=1 might be grossly inefficient on modern             |
|     multi-core architectures or massively parallel machines. Do your        |
|     own testing! More info at https://www.vasp.at/wiki/index.php/NCORE      |
|     Unfortunately you need to use the default for GW and RPA                |
|     calculations (for HF NCORE is supported but not extensively tested      |
|     yet).                                                                   |
|                                                                             |
 -----------------------------------------------------------------------------

 LDA part: xc-table for Pade appr. of Perdew
 POSCAR, INCAR and KPOINTS ok, starting setup
 FFT: planning ... GRIDC
 FFT: planning ... GRID_SOFT
 FFT: planning ... GRID
 WAVECAR not read
 entering main loop
       N       E                     dE             d eps       ncg     rms          rms(c)
DAV:   1     0.132152192187E+04    0.13215E+04   -0.88626E+04 25088   0.166E+03
DAV:   2    -0.953767395678E+02   -0.14169E+04   -0.13854E+04 28168   0.430E+02
DAV:   3    -0.169115387782E+03   -0.73739E+02   -0.73105E+02 33880   0.110E+02
DAV:   4    -0.170205765343E+03   -0.10904E+01   -0.10902E+01 30408   0.147E+01
DAV:   5    -0.170234628657E+03   -0.28863E-01   -0.28863E-01 33544   0.252E+00    0.564E+01
DAV:   6    -0.162697001111E+03    0.75376E+01   -0.59567E+02 32312   0.117E+02    0.502E+01
DAV:   7    -0.150146111628E+03    0.12551E+02   -0.15910E+02 30800   0.118E+02    0.172E+01
DAV:   8    -0.148121139888E+03    0.20250E+01   -0.94101E+00 38976   0.222E+01    0.814E+00
DAV:   9    -0.147829739114E+03    0.29140E+00   -0.45094E+00 40936   0.220E+01    0.376E+00
DAV:  10    -0.147784404513E+03    0.45335E-01   -0.56311E-01 34160   0.392E+00    0.217E+00
DAV:  11    -0.147764213085E+03    0.20191E-01   -0.23716E-01 39592   0.522E+00    0.571E-01
DAV:  12    -0.147765938101E+03   -0.17250E-02   -0.17640E-02 30856   0.787E-01    0.228E-01
DAV:  13    -0.147767180763E+03   -0.12427E-02   -0.38453E-03 42000   0.340E-01    0.111E-01
DAV:  14    -0.147767324261E+03   -0.14350E-03   -0.59286E-04 31584   0.200E-01    0.429E-02
DAV:  15    -0.147767367381E+03   -0.43120E-04   -0.11103E-04 36400   0.904E-02    0.163E-02
DAV:  16    -0.147767372283E+03   -0.49017E-05   -0.15208E-05 24584   0.269E-02
   1 F= -.14776737E+03 E0= -.14776737E+03  d E =-.147767E+03  mag=    12.0005
 curvature:   0.00 expect dE= 0.000E+00 dE for cont linesearch  0.000E+00
 trial: gam= 0.00000 g(F)=  0.654E-01 g(S)=  0.439E+00 ort = 0.000E+00 (trialstep = 0.100E+01)
 search vector abs. value=  0.504E+00
 bond charge predicted
       N       E                     dE             d eps       ncg     rms          rms(c)
DAV:   1    -0.149596514978E+03   -0.18291E+01   -0.34130E+01 34888   0.395E+01    0.101E+01
DAV:   2    -0.148805928295E+03    0.79059E+00   -0.79325E+00 29176   0.315E+01    0.714E+00
DAV:   3    -0.148132497208E+03    0.67343E+00   -0.26324E+00 31920   0.173E+01    0.222E+00
DAV:   4    -0.148098955061E+03    0.33542E-01   -0.27322E-01 38920   0.366E+00    0.773E-01
DAV:   5    -0.148090926534E+03    0.80285E-02   -0.26901E-02 42336   0.615E-01    0.344E-01
DAV:   6    -0.148090905264E+03    0.21270E-04   -0.33779E-03 35056   0.254E-01    0.123E-01
DAV:   7    -0.148090744229E+03    0.16104E-03   -0.83177E-04 28336   0.112E-01    0.334E-02
DAV:   8    -0.148090753926E+03   -0.96969E-05   -0.13528E-04 38808   0.461E-02    0.241E-02
DAV:   9    -0.148090753674E+03    0.25137E-06   -0.20851E-05 24864   0.252E-02
   2 F= -.14809075E+03 E0= -.14809075E+03  d E =-.323381E+00  mag=    12.0000
 trial-energy change:   -0.323381  1 .order   -0.327029   -0.504144   -0.149915
 step:   1.4653(harm=  1.4232)  dis= 0.01273  next Energy=  -148.125267 (dE=-0.358E+00)
 bond charge predicted
       N       E                     dE             d eps       ncg     rms          rms(c)
DAV:   1    -0.148449461643E+03   -0.35871E+00   -0.73124E+00 35728   0.181E+01    0.466E+00
DAV:   2    -0.148265059229E+03    0.18440E+00   -0.16486E+00 28728   0.141E+01    0.325E+00
DAV:   3    -0.148138020558E+03    0.12704E+00   -0.58411E-01 33040   0.791E+00    0.114E+00
DAV:   4    -0.148127084430E+03    0.10936E-01   -0.59804E-02 37408   0.203E+00    0.330E-01
DAV:   5    -0.148125684935E+03    0.13995E-02   -0.48470E-03 38192   0.310E-01    0.171E-01
DAV:   6    -0.148125593116E+03    0.91819E-04   -0.77943E-04 38528   0.128E-01    0.502E-02
DAV:   7    -0.148125575586E+03    0.17530E-04   -0.15020E-04 30744   0.527E-02    0.148E-02
DAV:   8    -0.148125579055E+03   -0.34693E-05   -0.26094E-05 32816   0.163E-02
   3 F= -.14812558E+03 E0= -.14812558E+03  d E =-.358207E+00  mag=    12.0000
 curvature:  -0.70 expect dE=-0.125E-01 dE for cont linesearch -0.249E-04
 ZBRENT: extrapolating
 opt :   1.4788  next Energy=  -148.125608 (dE=-0.358E+00)
 bond charge predicted
       N       E                     dE             d eps       ncg     rms          rms(c)
DAV:   1    -0.148125898968E+03   -0.32338E-03   -0.63856E-03 36568   0.529E-01    0.132E-01
DAV:   2    -0.148125735721E+03    0.16325E-03   -0.12653E-03 31248   0.387E-01    0.883E-02
DAV:   3    -0.148125651122E+03    0.84599E-04   -0.45868E-04 34608   0.217E-01    0.348E-02
DAV:   4    -0.148125639675E+03    0.11447E-04   -0.51676E-05 35000   0.653E-02    0.911E-03
DAV:   5    -0.148125638762E+03    0.91299E-06   -0.34497E-06 24864   0.101E-02
   4 F= -.14812564E+03 E0= -.14812564E+03  d E =-.358266E+00  mag=    12.0000
 curvature:  -0.81 expect dE=-0.153E-01 dE for cont linesearch -0.149E-04
 trial: gam= 0.03171 g(F)=  0.157E-01 g(S)=  0.335E-02 ort = 0.306E-02 (trialstep = 0.110E+01)
 search vector abs. value=  0.197E-01
 bond charge predicted
       N       E                     dE             d eps       ncg     rms          rms(c)
DAV:   1    -0.148166160346E+03   -0.40521E-01   -0.21379E+00 25088   0.711E+00    0.125E+00
DAV:   2    -0.148153129915E+03    0.13030E-01   -0.15956E-01 37912   0.385E+00    0.897E-01
DAV:   3    -0.148144892376E+03    0.82375E-02   -0.44273E-02 31416   0.215E+00    0.325E-01
DAV:   4    -0.148143990297E+03    0.90208E-03   -0.53509E-03 41384   0.631E-01    0.950E-02
DAV:   5    -0.148143915987E+03    0.74310E-04   -0.40398E-04 35560   0.112E-01    0.520E-02
DAV:   6    -0.148143921836E+03   -0.58487E-05   -0.53450E-05 39312   0.394E-02
   5 F= -.14814392E+03 E0= -.14814392E+03  d E =-.182831E-01  mag=    12.0000
 ZBRENT: can't locate minimum, use default step
 trial-energy change:   -0.018283  1 .order   -0.018884   -0.020974   -0.016795
 step:   4.3831(harm=  5.4993)  dis= 0.01661  next Energy=  -148.178270 (dE=-0.526E-01)
 bond charge predicted
       N       E                     dE             d eps       ncg     rms          rms(c)
DAV:   1    -0.148361430733E+03   -0.21751E+00   -0.19235E+01 25088   0.213E+01    0.376E+00
DAV:   2    -0.148249932454E+03    0.11150E+00   -0.14544E+00 37800   0.117E+01    0.273E+00
DAV:   3    -0.148170028839E+03    0.79904E-01   -0.39575E-01 30856   0.647E+00    0.929E-01
DAV:   4    -0.148163317316E+03    0.67115E-02   -0.47241E-02 41384   0.176E+00    0.285E-01
DAV:   5    -0.148162577039E+03    0.74028E-03   -0.36597E-03 34832   0.314E-01    0.154E-01
DAV:   6    -0.148162631228E+03   -0.54190E-04   -0.49851E-04 38024   0.117E-01    0.478E-02
DAV:   7    -0.148162632199E+03   -0.97019E-06   -0.13693E-04 32424   0.530E-02    0.164E-02
DAV:   8    -0.148162635917E+03   -0.37186E-05   -0.67166E-06 27272   0.135E-02
   6 F= -.14816264E+03 E0= -.14816264E+03  d E =-.369972E-01  mag=    12.0000
 curvature:  -2.65 expect dE=-0.124E-01 dE for cont linesearch -0.316E-02
 ZBRENT: interpolating
 opt :   3.5929  next Energy=  -148.164552 (dE=-0.389E-01)
 bond charge predicted
       N       E                     dE             d eps       ncg     rms          rms(c)
DAV:   1    -0.148175384789E+03   -0.12753E-01   -0.11080E+00 25088   0.511E+00    0.901E-01
DAV:   2    -0.148168279724E+03    0.71051E-02   -0.82269E-02 38080   0.274E+00    0.629E-01
DAV:   3    -0.148164401460E+03    0.38783E-02   -0.22831E-02 31416   0.153E+00    0.241E-01
DAV:   4    -0.148163884635E+03    0.51682E-03   -0.27930E-03 40712   0.474E-01    0.686E-02
DAV:   5    -0.148163844559E+03    0.40076E-04   -0.21454E-04 36064   0.828E-02    0.376E-02
DAV:   6    -0.148163846815E+03   -0.22558E-05   -0.26959E-05 35784   0.286E-02
   7 F= -.14816385E+03 E0= -.14816385E+03  d E =-.382081E-01  mag=    12.0000
 curvature:  -1.61 expect dE=-0.475E-02 dE for cont linesearch -0.112E-03
 ZBRENT: interpolating
 opt :   3.7469  next Energy=  -148.163937 (dE=-0.383E-01)
 bond charge predicted
       N       E                     dE             d eps       ncg     rms          rms(c)
DAV:   1    -0.148164443790E+03   -0.59923E-03   -0.42412E-02 25200   0.100E+00    0.176E-01
DAV:   2    -0.148164173844E+03    0.26995E-03   -0.31699E-03 38248   0.541E-01    0.124E-01
DAV:   3    -0.148164017829E+03    0.15602E-03   -0.87772E-04 31416   0.301E-01    0.467E-02
DAV:   4    -0.148163997304E+03    0.20525E-04   -0.10623E-04 41048   0.909E-02    0.134E-02
DAV:   5    -0.148163995572E+03    0.17323E-05   -0.70755E-06 24752   0.156E-02
   8 F= -.14816400E+03 E0= -.14816400E+03  d E =-.383568E-01  mag=    12.0000
 curvature:  -1.30 expect dE=-0.385E-02 dE for cont linesearch -0.977E-05
 trial: gam= 0.13735 g(F)=  0.203E-02 g(S)=  0.946E-03 ort = 0.386E-03 (trialstep = 0.163E+01)
 search vector abs. value=  0.345E-02
 bond charge predicted
       N       E                     dE             d eps       ncg     rms          rms(c)
DAV:   1    -0.148163347447E+03    0.64986E-03   -0.76988E-01 29624   0.731E+00    0.545E-01
DAV:   2    -0.148168132283E+03   -0.47848E-02   -0.82675E-02 37352   0.179E+00    0.378E-01
DAV:   3    -0.148167292640E+03    0.83964E-03   -0.72615E-03 35056   0.841E-01    0.161E-01
DAV:   4    -0.148167041858E+03    0.25078E-03   -0.10892E-03 39256   0.313E-01    0.654E-02
DAV:   5    -0.148167018809E+03    0.23049E-04   -0.12256E-04 34160   0.991E-02    0.285E-02
DAV:   6    -0.148167020899E+03   -0.20909E-05   -0.21847E-05 32704   0.242E-02
   9 F= -.14816702E+03 E0= -.14816702E+03  d E =-.302533E-02  mag=    12.0000
 trial-energy change:   -0.003025  1 .order   -0.003148   -0.004919   -0.001376
 step:   2.5639(harm=  2.2577)  dis= 0.00526  next Energy=  -148.167394 (dE=-0.340E-02)
 bond charge predicted
       N       E                     dE             d eps       ncg     rms          rms(c)
DAV:   1    -0.148165926544E+03    0.10923E-02   -0.25615E-01 30016   0.421E+00    0.314E-01
DAV:   2    -0.148167499603E+03   -0.15731E-02   -0.27260E-02 38248   0.103E+00    0.217E-01
DAV:   3    -0.148167226735E+03    0.27287E-03   -0.23964E-03 34608   0.483E-01    0.930E-02
DAV:   4    -0.148167145595E+03    0.81140E-04   -0.36074E-04 39592   0.180E-01    0.377E-02
DAV:   5    -0.148167138793E+03    0.68024E-05   -0.40371E-05 29512   0.572E-02
  10 F= -.14816714E+03 E0= -.14816714E+03  d E =-.314322E-02  mag=    12.0000
 curvature:  -0.99 expect dE=-0.805E-03 dE for cont linesearch -0.715E-04
 ZBRENT: interpolating
 opt :   2.2155  next Energy=  -148.167226 (dE=-0.323E-02)
 bond charge predicted
       N       E                     dE             d eps       ncg     rms          rms(c)
DAV:   1    -0.148167065325E+03    0.80270E-04   -0.35429E-02 30184   0.156E+00    0.114E-01
DAV:   2    -0.148167295448E+03   -0.23012E-03   -0.38185E-03 37352   0.382E-01    0.791E-02
DAV:   3    -0.148167257467E+03    0.37981E-04   -0.32110E-04 34552   0.177E-01    0.339E-02
DAV:   4    -0.148167245645E+03    0.11822E-04   -0.47915E-05 34160   0.663E-02    0.137E-02
DAV:   5    -0.148167243950E+03    0.16948E-05   -0.52614E-06 21392   0.214E-02
  11 F= -.14816724E+03 E0= -.14816724E+03  d E =-.324838E-02  mag=    12.0000
 curvature:  -1.20 expect dE=-0.694E-03 dE for cont linesearch -0.556E-05
 ZBRENT: interpolating
 opt :   2.1131  next Energy=  -148.167251 (dE=-0.326E-02)
 bond charge predicted
       N       E                     dE             d eps       ncg     rms          rms(c)
DAV:   1    -0.148167230136E+03    0.15509E-04   -0.30258E-03 30240   0.460E-01    0.350E-02
DAV:   2    -0.148167249771E+03   -0.19635E-04   -0.33145E-04 38136   0.114E-01    0.240E-02
DAV:   3    -0.148167246071E+03    0.36995E-05   -0.28359E-05 28672   0.535E-02
  12 F= -.14816725E+03 E0= -.14816725E+03  d E =-.325050E-02  mag=    12.0000
 curvature:  -1.58 expect dE=-0.882E-03 dE for cont linesearch -0.489E-06
 trial: gam= 0.11747 g(F)=  0.208E-03 g(S)=  0.350E-03 ort =-0.327E-04 (trialstep = 0.172E+01)
 search vector abs. value=  0.598E-03
 bond charge predicted
       N       E                     dE             d eps       ncg     rms          rms(c)
DAV:   1    -0.148168055460E+03   -0.80569E-03   -0.83786E-02 37744   0.232E+00    0.228E-01
DAV:   2    -0.148168094676E+03   -0.39216E-04   -0.56650E-03 39872   0.357E-01    0.125E-01
DAV:   3    -0.148167997683E+03    0.96993E-04   -0.34336E-04 35000   0.150E-01    0.741E-02
DAV:   4    -0.148167954838E+03    0.42846E-04   -0.19385E-04 36792   0.150E-01    0.306E-02
DAV:   5    -0.148167945139E+03    0.96989E-05   -0.48710E-05 33432   0.720E-02
  13 F= -.14816795E+03 E0= -.14816795E+03  d E =-.699068E-03  mag=    12.0000
 trial-energy change:   -0.000699  1 .order   -0.000722   -0.000955   -0.000489
 step:   3.5313(harm=  3.5313)  dis= 0.00200  next Energy=  -148.168224 (dE=-0.978E-03)
 bond charge predicted
       N       E                     dE             d eps       ncg     rms          rms(c)
DAV:   1    -0.148168241547E+03   -0.28671E-03   -0.92019E-02 37408   0.243E+00    0.241E-01
DAV:   2    -0.148168271097E+03   -0.29549E-04   -0.62301E-03 39984   0.378E-01    0.132E-01
DAV:   3    -0.148168164524E+03    0.10657E-03   -0.39978E-04 34888   0.165E-01    0.795E-02
DAV:   4    -0.148168114929E+03    0.49594E-04   -0.22585E-04 36736   0.162E-01    0.324E-02
DAV:   5    -0.148168104625E+03    0.10305E-04   -0.53723E-05 34216   0.754E-02    0.852E-03
DAV:   6    -0.148168105648E+03   -0.10234E-05   -0.33266E-06 23072   0.107E-02
  14 F= -.14816811E+03 E0= -.14816811E+03  d E =-.859577E-03  mag=    12.0000
 curvature:  -1.91 expect dE=-0.281E-03 dE for cont linesearch -0.297E-04
 ZBRENT: interpolating
 opt :   3.0723  next Energy=  -148.168128 (dE=-0.882E-03)
 bond charge predicted
       N       E                     dE             d eps       ncg     rms          rms(c)
DAV:   1    -0.148168126549E+03   -0.21924E-04   -0.59537E-03 36680   0.618E-01    0.613E-02
DAV:   2    -0.148168129493E+03   -0.29444E-05   -0.41271E-04 39536   0.969E-02    0.338E-02
DAV:   3    -0.148168122047E+03    0.74465E-05   -0.23644E-05 24752   0.419E-02
  15 F= -.14816812E+03 E0= -.14816812E+03  d E =-.875976E-03  mag=    12.0000
 curvature:  -1.42 expect dE=-0.218E-03 dE for cont linesearch -0.163E-04
 ZBRENT: bisectioning
 opt :   2.3979  next Energy=  -148.168171 (dE=-0.925E-03)
 bond charge predicted
       N       E                     dE             d eps       ncg     rms          rms(c)
DAV:   1    -0.148168103172E+03    0.26321E-04   -0.12624E-02 37352   0.901E-01    0.920E-02
DAV:   2    -0.148168107408E+03   -0.42354E-05   -0.88173E-04 40432   0.129E-01    0.503E-02
DAV:   3    -0.148168088390E+03    0.19018E-04   -0.37556E-05 31024   0.384E-02    0.259E-02
DAV:   4    -0.148168083539E+03    0.48507E-05   -0.12809E-05 29456   0.361E-02
  16 F= -.14816808E+03 E0= -.14816808E+03  d E =-.837468E-03  mag=    12.0000
 curvature:  -4.28 expect dE=-0.390E-03 dE for cont linesearch -0.108E-03
 ZBRENT: interpolating
 opt :   2.8008  next Energy=  -148.168133 (dE=-0.887E-03)
 bond charge predicted
       N       E                     dE             d eps       ncg     rms          rms(c)
DAV:   1    -0.148168121033E+03   -0.32643E-04   -0.45995E-03 36848   0.539E-01    0.537E-02
DAV:   2    -0.148168123984E+03   -0.29509E-05   -0.32770E-04 40040   0.800E-02    0.291E-02
DAV:   3    -0.148168117729E+03    0.62544E-05   -0.12246E-05 21056   0.250E-02
  17 F= -.14816812E+03 E0= -.14816812E+03  d E =-.871658E-03  mag=    12.0000
 curvature:  -0.44 expect dE=-0.525E-04 dE for cont linesearch -0.601E-05
 ZBRENT: interpolating
 opt :   2.9421  next Energy=  -148.168127 (dE=-0.881E-03)
 bond charge predicted
       N       E                     dE             d eps       ncg     rms          rms(c)
DAV:   1    -0.148168119509E+03    0.44748E-05   -0.53149E-04 37632   0.188E-01    0.200E-02
DAV:   2    -0.148168119879E+03   -0.36973E-06   -0.43088E-05 39928   0.291E-02
  18 F= -.14816812E+03 E0= -.14816812E+03  d E =-.873808E-03  mag=    12.0000
 curvature:  -0.40 expect dE=-0.433E-04 dE for cont linesearch -0.164E-05
 ZBRENT: interpolating
 opt :   2.9908  next Energy=  -148.168121 (dE=-0.875E-03)
 bond charge predicted
       N       E                     dE             d eps       ncg     rms          rms(c)
DAV:   1    -0.148168119672E+03   -0.16327E-06   -0.61726E-05 33992   0.671E-02    0.120E-02
DAV:   2    -0.148168118942E+03    0.73046E-06   -0.71727E-06 19600   0.189E-02
  19 F= -.14816812E+03 E0= -.14816812E+03  d E =-.872871E-03  mag=    12.0000
 curvature:  -0.29 expect dE=-0.311E-04 dE for cont linesearch -0.263E-06
 ZBRENT: interpolating
 opt :   3.0242  next Energy=  -148.168119 (dE=-0.873E-03)
 bond charge predicted
       N       E                     dE             d eps       ncg     rms          rms(c)
DAV:   1    -0.148168118648E+03    0.10242E-05   -0.29369E-05 29176   0.476E-02    0.805E-03
DAV:   2    -0.148168118602E+03    0.46373E-07   -0.66450E-06 18928   0.161E-02
  20 F= -.14816812E+03 E0= -.14816812E+03  d E =-.872530E-03  mag=    12.0000
 curvature:  -0.53 expect dE=-0.553E-04 dE for cont linesearch -0.489E-07
 trial: gam= 0.17335 g(F)=  0.897E-04 g(S)=  0.155E-04 ort = 0.746E-05 (trialstep = 0.198E+01)
 search vector abs. value=  0.126E-03
 bond charge predicted
       N       E                     dE             d eps       ncg     rms          rms(c)
DAV:   1    -0.148167969321E+03    0.14933E-03   -0.37012E-02 25704   0.150E+00    0.101E-01
DAV:   2    -0.148168268966E+03   -0.29965E-03   -0.39782E-03 37016   0.285E-01    0.635E-02
DAV:   3    -0.148168252959E+03    0.16008E-04   -0.16532E-04 31640   0.122E-01    0.371E-02
DAV:   4    -0.148168234609E+03    0.18350E-04   -0.55722E-05 36568   0.720E-02    0.172E-02
DAV:   5    -0.148168232225E+03    0.23831E-05   -0.12904E-05 23856   0.340E-02
  21 F= -.14816823E+03 E0= -.14816823E+03  d E =-.113624E-03  mag=    12.0000
 trial-energy change:   -0.000114  1 .order   -0.000112   -0.000211   -0.000013
 step:   2.1163(harm=  2.1163)  dis= 0.00082  next Energy=  -148.168231 (dE=-0.113E-03)
 bond charge predicted
       N       E                     dE             d eps       ncg     rms          rms(c)
DAV:   1    -0.148168230912E+03    0.36963E-05   -0.16293E-04 26936   0.992E-02    0.697E-03
DAV:   2    -0.148168232294E+03   -0.13819E-05   -0.17350E-05 30968   0.198E-02
  22 F= -.14816823E+03 E0= -.14816823E+03  d E =-.113692E-03  mag=    12.0000
 curvature:  -1.25 expect dE=-0.309E-04 dE for cont linesearch -0.229E-06
 trial: gam= 0.23226 g(F)=  0.204E-04 g(S)=  0.435E-05 ort =-0.480E-05 (trialstep = 0.201E+01)
 search vector abs. value=  0.293E-04
 bond charge predicted
       N       E                     dE             d eps       ncg     rms          rms(c)
DAV:   1    -0.148168264018E+03   -0.33106E-04   -0.10268E-02 33096   0.903E-01    0.755E-02
DAV:   2    -0.148168276535E+03   -0.12517E-04   -0.94510E-04 38080   0.240E-01    0.521E-02
DAV:   3    -0.148168255190E+03    0.21345E-04   -0.15600E-04 36624   0.124E-01    0.207E-02
DAV:   4    -0.148168249941E+03    0.52490E-05   -0.17516E-05 27832   0.420E-02
  23 F= -.14816825E+03 E0= -.14816825E+03  d E =-.176472E-04  mag=    12.0000
 trial-energy change:   -0.000018  1 .order   -0.000016   -0.000047    0.000015
 step:   1.5321(harm=  1.5321)  dis= 0.00035  next Energy=  -148.168250 (dE=-0.181E-04)
 reached required accuracy - stopping structural energy minimisation
