<?xml version="1.0" encoding="ISO-8859-1"?>
<modeling>
 <generator>
  <i name="program" type="string">vasp </i>
  <i name="version" type="string">6.3.2  </i>
  <i name="subversion" type="string">27Jun22 (build May 08 2025 20:43:02) complex                          parallel </i>
  <i name="platform" type="string">LinuxIFC </i>
  <i name="date" type="string">2025 10 27 </i>
  <i name="time" type="string">21:29:51 </i>
 </generator>
 <incar>
  <i type="string" name="SYSTEM">OPT</i>
  <i type="int" name="ISTART">     0</i>
  <i type="string" name="PREC">High</i>
  <i type="string" name="ALGO">Normal</i>
  <i type="int" name="ISPIN">     2</i>
  <i type="int" name="ICHARG">     2</i>
  <i type="int" name="NELM">   100</i>
  <i type="int" name="NELMIN">     2</i>
  <i type="int" name="IBRION">     2</i>
  <i name="EDIFF">      0.00001000</i>
  <i name="EDIFFG">     -0.01000000</i>
  <i type="int" name="NSW">   500</i>
  <i type="int" name="ISIF">     3</i>
  <i name="ENCUT">    520.00000000</i>
  <i name="POTIM">      0.20000000</i>
  <i type="string" name="LREAL">Auto</i>
  <i type="int" name="ISMEAR">     0</i>
  <i name="SIGMA">      0.05000000</i>
  <i type="int" name="LMAXMIX">     4</i>
  <i type="logical" name="LWAVE"> F  </i>
  <i type="logical" name="LCHARG"> F  </i>
  <i type="string" name="GGA">PE</i>
  <i type="logical" name="LDAU"> T  </i>
  <i type="int" name="LDAUTYPE">     2</i>
  <v type="int" name="LDAUL">     2    -1    -1</v>
  <v name="LDAUU">      4.00000000      0.00000000      0.00000000</v>
  <v name="LDAUJ">      0.00000000      0.00000000      0.00000000</v>
 </incar>
 <primitive_cell>
  <structure name="primitive_cell" >
   <crystal>
    <varray name="basis" >
     <v>       4.89815900       0.00000000       0.00000000 </v>
     <v>      -2.44324852       4.24529333       0.00000000 </v>
     <v>       0.79421791       1.37344839       9.40012692 </v>
    </varray>
    <i name="volume">    195.46738364 </i>
    <varray name="rec_basis" >
     <v>       0.20415834       0.11749708      -0.03441681 </v>
     <v>       0.00000000       0.23555498      -0.03441683 </v>
     <v>       0.00000000       0.00000000       0.10638154 </v>
    </varray>
   </crystal>
   <varray name="positions" >
    <v>       0.83289082       0.16710566       0.99999862 </v>
    <v>       0.16711068       0.83288587       0.99999869 </v>
    <v>       0.33289456       0.66710373       0.50000608 </v>
    <v>       0.66711444       0.33288535       0.50000568 </v>
    <v>       0.39356550       0.39355426       0.38617247 </v>
    <v>       0.89359043       0.89358438       0.88616658 </v>
    <v>       0.10642654       0.10642028       0.11383436 </v>
    <v>       0.60641032       0.60639838       0.61383552 </v>
    <v>       0.03661870       0.68039202       0.38769659 </v>
    <v>       0.53661465       0.18038049       0.88769418 </v>
    <v>       0.81961335       0.46338152       0.11231063 </v>
    <v>       0.31961690       0.96338348       0.61230338 </v>
    <v>       0.46338977       0.81958816       0.11230453 </v>
    <v>       0.96339604       0.31959725       0.61230064 </v>
    <v>       0.68041182       0.03660614       0.38769911 </v>
    <v>       0.18040623       0.53660667       0.88770041 </v>
    <v>       0.49979636       0.50002178       0.00004463 </v>
    <v>       0.00010816       0.00014389       0.49991836 </v>
    <v>       0.74999264       0.74998337       0.25000054 </v>
    <v>       0.25001647       0.25000442       0.75000231 </v>
    <v>       0.08874518       0.41125105       0.25000230 </v>
    <v>       0.58874551       0.91125190       0.75000060 </v>
    <v>       0.41126140       0.08873559       0.25000327 </v>
    <v>       0.91126254       0.58873737       0.74999952 </v>
   </varray>
  </structure>
  <varray name="primitive_index" >
   <v type="int" >        1 </v>
   <v type="int" >        2 </v>
   <v type="int" >        3 </v>
   <v type="int" >        4 </v>
   <v type="int" >        5 </v>
   <v type="int" >        6 </v>
   <v type="int" >        7 </v>
   <v type="int" >        8 </v>
   <v type="int" >        9 </v>
   <v type="int" >       10 </v>
   <v type="int" >       11 </v>
   <v type="int" >       12 </v>
   <v type="int" >       13 </v>
   <v type="int" >       14 </v>
   <v type="int" >       15 </v>
   <v type="int" >       16 </v>
   <v type="int" >       17 </v>
   <v type="int" >       18 </v>
   <v type="int" >       19 </v>
   <v type="int" >       20 </v>
   <v type="int" >       21 </v>
   <v type="int" >       22 </v>
   <v type="int" >       23 </v>
   <v type="int" >       24 </v>
  </varray>
 </primitive_cell>
 <kpoints>
  <generation param="Gamma">
   <v type="int" name="divisions">       6        6        3 </v>
   <v name="usershift">      0.00000000       0.00000000       0.00000000 </v>
   <v name="genvec1">      0.16666667      -0.00000000       0.00000000 </v>
   <v name="genvec2">      0.00000000       0.16666667       0.00000000 </v>
   <v name="genvec3">      0.00000000       0.00000000       0.33333333 </v>
   <v name="shift">      0.00000000       0.00000000       0.00000000 </v>
  </generation>
  <varray name="kpointlist" >
   <v>       0.00000000       0.00000000       0.00000000 </v>
   <v>       0.16666667      -0.00000000      -0.00000000 </v>
   <v>       0.00000000      -0.16666667       0.00000000 </v>
   <v>       0.33333333      -0.00000000      -0.00000000 </v>
   <v>       0.00000000      -0.33333333       0.00000000 </v>
   <v>       0.50000000       0.00000000       0.00000000 </v>
   <v>       0.00000000       0.50000000      -0.00000000 </v>
   <v>       0.16666667       0.16666667       0.00000000 </v>
   <v>       0.33333333       0.16666667       0.00000000 </v>
   <v>      -0.16666667      -0.33333333       0.00000000 </v>
   <v>       0.50000000       0.16666667      -0.00000000 </v>
   <v>      -0.16666667       0.50000000      -0.00000000 </v>
   <v>      -0.33333333       0.16666667      -0.00000000 </v>
   <v>      -0.16666667       0.33333333       0.00000000 </v>
   <v>      -0.16666667       0.16666667      -0.00000000 </v>
   <v>       0.33333333       0.33333333      -0.00000000 </v>
   <v>       0.50000000       0.33333333      -0.00000000 </v>
   <v>      -0.33333333       0.50000000       0.00000000 </v>
   <v>      -0.33333333       0.33333333       0.00000000 </v>
   <v>       0.50000000       0.50000000       0.00000000 </v>
   <v>       0.00000000       0.00000000       0.33333333 </v>
   <v>       0.16666667      -0.00000000       0.33333333 </v>
   <v>       0.00000000      -0.16666667      -0.33333333 </v>
   <v>       0.33333333      -0.00000000       0.33333333 </v>
   <v>       0.00000000      -0.33333333      -0.33333333 </v>
   <v>       0.50000000       0.00000000       0.33333333 </v>
   <v>       0.00000000       0.50000000      -0.33333333 </v>
   <v>      -0.33333333       0.00000000       0.33333333 </v>
   <v>       0.00000000       0.33333333      -0.33333333 </v>
   <v>      -0.16666667       0.00000000       0.33333333 </v>
   <v>       0.00000000       0.16666667      -0.33333333 </v>
   <v>       0.16666667       0.16666667       0.33333333 </v>
   <v>       0.33333333       0.16666667       0.33333333 </v>
   <v>      -0.16666667      -0.33333333      -0.33333333 </v>
   <v>       0.50000000       0.16666667       0.33333333 </v>
   <v>      -0.16666667       0.50000000      -0.33333333 </v>
   <v>      -0.33333333       0.16666667       0.33333333 </v>
   <v>      -0.16666667       0.33333333      -0.33333333 </v>
   <v>      -0.16666667       0.16666667       0.33333333 </v>
   <v>      -0.16666667       0.16666667      -0.33333333 </v>
   <v>       0.33333333       0.33333333       0.33333333 </v>
   <v>       0.50000000       0.33333333       0.33333333 </v>
   <v>      -0.33333333       0.50000000      -0.33333333 </v>
   <v>      -0.33333333       0.33333333       0.33333333 </v>
   <v>      -0.33333333       0.33333333      -0.33333333 </v>
   <v>      -0.16666667       0.33333333       0.33333333 </v>
   <v>      -0.33333333       0.16666667      -0.33333333 </v>
   <v>       0.50000000       0.50000000       0.33333333 </v>
   <v>      -0.33333333       0.50000000       0.33333333 </v>
   <v>       0.50000000       0.33333333      -0.33333333 </v>
   <v>      -0.16666667       0.50000000       0.33333333 </v>
   <v>       0.50000000       0.16666667      -0.33333333 </v>
   <v>      -0.33333333      -0.33333333       0.33333333 </v>
   <v>      -0.16666667      -0.33333333       0.33333333 </v>
   <v>       0.33333333       0.16666667      -0.33333333 </v>
   <v>      -0.16666667      -0.16666667       0.33333333 </v>
  </varray>
  <varray name="weights" >
   <v>       0.00925926 </v>
   <v>       0.01851852 </v>
   <v>       0.01851852 </v>
   <v>       0.01851852 </v>
   <v>       0.01851852 </v>
   <v>       0.00925926 </v>
   <v>       0.00925926 </v>
   <v>       0.01851852 </v>
   <v>       0.01851852 </v>
   <v>       0.01851852 </v>
   <v>       0.01851852 </v>
   <v>       0.01851852 </v>
   <v>       0.01851852 </v>
   <v>       0.01851852 </v>
   <v>       0.01851852 </v>
   <v>       0.01851852 </v>
   <v>       0.01851852 </v>
   <v>       0.01851852 </v>
   <v>       0.01851852 </v>
   <v>       0.00925926 </v>
   <v>       0.01851852 </v>
   <v>       0.01851852 </v>
   <v>       0.01851852 </v>
   <v>       0.01851852 </v>
   <v>       0.01851852 </v>
   <v>       0.01851852 </v>
   <v>       0.01851852 </v>
   <v>       0.01851852 </v>
   <v>       0.01851852 </v>
   <v>       0.01851852 </v>
   <v>       0.01851852 </v>
   <v>       0.01851852 </v>
   <v>       0.01851852 </v>
   <v>       0.01851852 </v>
   <v>       0.01851852 </v>
   <v>       0.01851852 </v>
   <v>       0.01851852 </v>
   <v>       0.01851852 </v>
   <v>       0.01851852 </v>
   <v>       0.01851852 </v>
   <v>       0.01851852 </v>
   <v>       0.01851852 </v>
   <v>       0.01851852 </v>
   <v>       0.01851852 </v>
   <v>       0.01851852 </v>
   <v>       0.01851852 </v>
   <v>       0.01851852 </v>
   <v>       0.01851852 </v>
   <v>       0.01851852 </v>
   <v>       0.01851852 </v>
   <v>       0.01851852 </v>
   <v>       0.01851852 </v>
   <v>       0.01851852 </v>
   <v>       0.01851852 </v>
   <v>       0.01851852 </v>
   <v>       0.01851852 </v>
  </varray>
 </kpoints>
 <parameters>
  <separator name="general" >
   <i type="string" name="SYSTEM">OPT</i>
   <i type="logical" name="LCOMPAT"> F  </i>
  </separator>
  <separator name="electronic" >
   <i type="string" name="PREC">high</i>
   <i name="ENMAX">    520.00000000</i>
   <i name="ENAUG">    605.39200000</i>
   <i name="EDIFF">      0.00001000</i>
   <i type="int" name="IALGO">    38</i>
   <i type="int" name="IWAVPR">    11</i>
   <i type="int" name="NBANDS">   112</i>
   <i type="int" name="NBANDSLOW">    -1</i>
   <i type="int" name="NBANDSHIGH">    -1</i>
   <i name="NELECT">    148.00000000</i>
   <i type="int" name="TURBO">     0</i>
   <i type="int" name="IRESTART">     0</i>
   <i type="int" name="NREBOOT">     0</i>
   <i type="int" name="NMIN">     0</i>
   <i name="EREF">      0.00000000</i>
   <separator name="electronic smearing" >
    <i type="int" name="ISMEAR">     0</i>
    <i name="SIGMA">      0.05000000</i>
    <i name="KSPACING">      0.50000000</i>
    <i type="logical" name="KGAMMA"> T  </i>
    <i type="logical" name="KBLOWUP"> T  </i>
   </separator>
   <separator name="electronic projectors" >
    <i type="logical" name="LREAL"> T  </i>
    <v name="ROPT">     -0.00040000     -0.00040000     -0.00040000</v>
    <i type="int" name="LMAXPAW">  -100</i>
    <i type="int" name="LMAXMIX">     4</i>
    <i type="logical" name="NLSPLINE"> F  </i>
   </separator>
   <separator name="electronic startup" >
    <i type="int" name="ISTART">     0</i>
    <i type="int" name="ICHARG">     2</i>
    <i type="int" name="INIWAV">     1</i>
   </separator>
   <separator name="electronic spin" >
    <i type="int" name="ISPIN">     2</i>
    <i type="logical" name="LNONCOLLINEAR"> F  </i>
    <v name="MAGMOM">      1.00000000      1.00000000      1.00000000      1.00000000      1.00000000      1.00000000      1.00000000      1.00000000      1.00000000      1.00000000      1.00000000      1.00000000      1.00000000      1.00000000      1.00000000      1.00000000      1.00000000      1.00000000      1.00000000      1.00000000
      1.00000000      1.00000000      1.00000000      1.00000000</v>
    <i name="NUPDOWN">     -1.00000000</i>
    <i type="logical" name="LSORBIT"> F  </i>
    <v name="SAXIS">      0.00000000      0.00000000      1.00000000</v>
    <i type="logical" name="LSPIRAL"> F  </i>
    <v name="QSPIRAL">      0.00000000      0.00000000      0.00000000</v>
    <i type="logical" name="LZEROZ"> F  </i>
   </separator>
   <separator name="electronic exchange-correlation" >
    <i type="logical" name="LASPH"> F  </i>
    <i type="logical" name="LMETAGGA"> F  </i>
   </separator>
   <separator name="electronic convergence" >
    <i type="int" name="NELM">   100</i>
    <i type="int" name="NELMDL">    -5</i>
    <i type="int" name="NELMIN">     2</i>
    <i name="ENINI">    520.00000000</i>
    <separator name="electronic convergence detail" >
     <i type="logical" name="LDIAG"> T  </i>
     <i type="logical" name="LSUBROT"> F  </i>
     <i name="WEIMIN">      0.00100000</i>
     <i name="EBREAK">      0.00000002</i>
     <i name="DEPER">      0.30000000</i>
     <i type="int" name="NRMM">     4</i>
     <i name="TIME">      0.40000000</i>
    </separator>
   </separator>
   <separator name="electronic mixer" >
    <i name="AMIX">      0.40000000</i>
    <i name="BMIX">      1.00000000</i>
    <i name="AMIN">      0.10000000</i>
    <i name="AMIX_MAG">      1.60000000</i>
    <i name="BMIX_MAG">      1.00000000</i>
    <separator name="electronic mixer details" >
     <i type="int" name="IMIX">     4</i>
     <i type="logical" name="MIXFIRST"> F  </i>
     <i type="int" name="MAXMIX">   -45</i>
     <i name="WC">    100.00000000</i>
     <i type="int" name="INIMIX">     1</i>
     <i type="int" name="MIXPRE">     1</i>
     <i type="int" name="MREMOVE">     5</i>
    </separator>
   </separator>
   <separator name="electronic dipolcorrection" >
    <i type="logical" name="LDIPOL"> F  </i>
    <i type="logical" name="LMONO"> F  </i>
    <i type="int" name="IDIPOL">     0</i>
    <i name="EPSILON">      1.00000000</i>
    <v name="DIPOL">   -100.00000000   -100.00000000   -100.00000000</v>
    <i name="EFIELD">      0.00000000</i>
   </separator>
  </separator>
  <separator name="grids" >
   <i type="int" name="NGX">    36</i>
   <i type="int" name="NGY">    36</i>
   <i type="int" name="NGZ">    72</i>
   <i type="int" name="NGXF">    54</i>
   <i type="int" name="NGYF">    54</i>
   <i type="int" name="NGZF">   108</i>
   <i type="logical" name="ADDGRID"> F  </i>
  </separator>
  <separator name="ionic" >
   <i type="int" name="NSW">   500</i>
   <i type="int" name="IBRION">     2</i>
   <i type="int" name="MDALGO">     0</i>
   <i type="int" name="ISIF">     3</i>
   <i name="PSTRESS">      0.00000000</i>
   <i name="EDIFFG">     -0.01000000</i>
   <i type="int" name="NFREE">     1</i>
   <i name="POTIM">      0.20000000</i>
   <i name="SMASS">     -3.00000000</i>
   <i name="SCALEE">      1.00000000</i>
  </separator>
  <separator name="ionic md" >
   <i name="TEBEG">      0.00010000</i>
   <i name="TEEND">      0.00010000</i>
   <i type="int" name="NBLOCK">     1</i>
   <i type="int" name="KBLOCK">   500</i>
   <i type="int" name="NPACO">   256</i>
   <i name="APACO">     10.00000000</i>
  </separator>
  <separator name="symmetry" >
   <i type="int" name="ISYM">     2</i>
   <i name="SYMPREC">      0.00001000</i>
  </separator>
  <separator name="dos" >
   <i type="int" name="LORBIT">     0</i>
   <v name="RWIGS">     -1.00000000     -1.00000000     -1.00000000</v>
   <i type="int" name="NEDOS">   301</i>
   <i name="EMIN">     10.00000000</i>
   <i name="EMAX">    -10.00000000</i>
   <i name="EFERMI">      0.00000000</i>
  </separator>
  <separator name="writing" >
   <i type="int" name="NWRITE">     2</i>
   <i type="logical" name="LWAVE"> F  </i>
   <i type="logical" name="LDOWNSAMPLE"> F  </i>
   <i type="logical" name="LCHARG"> F  </i>
   <i type="logical" name="LPARD"> F  </i>
   <i type="logical" name="LVTOT"> F  </i>
   <i type="logical" name="LVHAR"> F  </i>
   <i type="logical" name="LELF"> F  </i>
   <i type="logical" name="LOPTICS"> F  </i>
   <v name="STM">      0.00000000      0.00000000      0.00000000      0.00000000      0.00000000      0.00000000      0.00000000</v>
  </separator>
  <separator name="performance" >
   <i type="int" name="NPAR">    56</i>
   <i type="int" name="NSIM">     4</i>
   <i type="int" name="NBLK">    -1</i>
   <i type="logical" name="LPLANE"> T  </i>
   <i type="logical" name="LSCALAPACK"> T  </i>
   <i type="logical" name="LSCAAWARE"> T  </i>
   <i type="logical" name="LSCALU"> F  </i>
   <i type="logical" name="LASYNC"> F  </i>
   <i type="logical" name="LORBITALREAL"> F  </i>
  </separator>
  <separator name="miscellaneous" >
   <i type="int" name="IDIOT">     3</i>
   <i type="int" name="PHON_NSTRUCT">    -1</i>
   <i type="logical" name="LMUSIC"> F  </i>
   <v name="POMASS">     54.93800000     16.00000000      7.01000000</v>
   <v name="DARWINR">      0.00000000      0.00000000      0.00000000</v>
   <v name="DARWINV">      1.00000000      1.00000000      1.00000000</v>
   <i type="logical" name="LCORR"> T  </i>
  </separator>
  <i type="logical" name="GGA_COMPAT"> T  </i>
  <i type="logical" name="LBERRY"> F  </i>
  <i type="int" name="ICORELEVEL">     0</i>
  <i type="logical" name="LDAU"> T  </i>
  <v type="int" name="LDAUTYPE">     2</v>
  <v type="int" name="LDAUL">     2</v>
  <v name="LDAUU">      4.00000000</v>
  <v name="LDAUJ">      0.00000000</v>
  <i type="int" name="LDAUPRINT">     0</i>
  <i type="int" name="I_CONSTRAINED_M">     0</i>
  <separator name="electronic exchange-correlation" >
   <i type="string" name="GGA">PE</i>
   <i type="int" name="VOSKOWN">     0</i>
   <i type="logical" name="LHFCALC"> F  </i>
   <i type="string" name="PRECFOCK"></i>
   <i type="logical" name="LSYMGRAD"> F  </i>
   <i type="logical" name="LHFONE"> F  </i>
   <i type="logical" name="LRHFCALC"> F  </i>
   <i type="logical" name="LTHOMAS"> F  </i>
   <i type="logical" name="LMODELHF"> F  </i>
   <i type="logical" name="LFOCKACE"> F  </i>
   <i name="ENCUT4O">     -1.00000000</i>
   <i type="int" name="EXXOEP">     0</i>
   <i type="int" name="FOURORBIT">     0</i>
   <i name="AEXX">      0.00000000</i>
   <i name="HFALPHA">      0.00000000</i>
   <i name="MCALPHA">      0.00000000</i>
   <i name="ALDAX">      1.00000000</i>
   <i name="AGGAX">      1.00000000</i>
   <i name="ALDAC">      1.00000000</i>
   <i name="AGGAC">      1.00000000</i>
   <i type="int" name="NKREDX">     1</i>
   <i type="int" name="NKREDY">     1</i>
   <i type="int" name="NKREDZ">     1</i>
   <i type="logical" name="SHIFTRED"> F  </i>
   <i type="logical" name="ODDONLY"> F  </i>
   <i type="logical" name="EVENONLY"> F  </i>
   <i type="int" name="LMAXFOCK">     0</i>
   <i type="int" name="NMAXFOCKAE">     0</i>
   <i type="logical" name="LFOCKAEDFT"> F  </i>
   <i name="HFSCREEN">      0.00000000</i>
   <i name="HFSCREENC">      0.00000000</i>
   <i type="int" name="NBANDSGWLOW">     0</i>
  </separator>
  <separator name="vdW DFT" >
   <i type="logical" name="LUSE_VDW"> F  </i>
   <i name="Zab_VDW">     -0.84910000</i>
   <i name="PARAM1">      0.12340000</i>
   <i name="PARAM2">      1.00000000</i>
   <i name="PARAM3">      0.00000000</i>
  </separator>
  <separator name="model GW" >
   <i type="int" name="MODEL_GW">     0</i>
   <i name="MODEL_EPS0">      4.88668459</i>
   <i name="MODEL_ALPHA">      1.00000000</i>
  </separator>
  <separator name="linear response parameters" >
   <i type="logical" name="LEPSILON"> F  </i>
   <i type="logical" name="LRPA"> F  </i>
   <i type="logical" name="LNABLA"> F  </i>
   <i type="logical" name="LVEL"> F  </i>
   <i name="CSHIFT">      0.10000000</i>
   <i name="OMEGAMAX">     -1.00000000</i>
   <i name="DEG_THRESHOLD">      0.00200000</i>
   <i name="RTIME">     -0.10000000</i>
   <i name="WPLASMAI">      0.00000000</i>
   <v name="DFIELD">      0.00000000      0.00000000      0.00000000</v>
   <v name="WPLASMA">      0.00000000      0.00000000      0.00000000      0.00000000      0.00000000      0.00000000      0.00000000      0.00000000      0.00000000</v>
  </separator>
  <separator name="orbital magnetization" >
   <i type="logical" name="NUCIND"> F  </i>
   <v name="MAGPOS">      0.00000000      0.00000000      0.00000000</v>
   <i type="logical" name="LNICSALL"> T  </i>
   <i type="logical" name="ORBITALMAG"> F  </i>
   <i type="logical" name="LMAGBLOCH"> F  </i>
   <i type="logical" name="LCHIMAG"> F  </i>
   <i type="logical" name="LGAUGE"> T  </i>
   <i type="int" name="MAGATOM">     0</i>
   <v name="MAGDIPOL">      0.00000000      0.00000000      0.00000000</v>
   <v name="AVECCONST">      0.00000000      0.00000000      0.00000000</v>
  </separator>
  <separator name="response functions" >
   <i type="logical" name="LFINITE_TEMPERATURE"> F  </i>
   <i type="logical" name="LADDER"> F  </i>
   <i type="logical" name="LRPAFORCE"> F  </i>
   <i type="logical" name="LFXC"> F  </i>
   <i type="logical" name="LHARTREE"> T  </i>
   <i type="int" name="IBSE">     0</i>
   <v type="int" name="KPOINT">    -1     0     0     0</v>
   <i type="logical" name="LTCTC"> F  </i>
   <i type="logical" name="LTCTE"> F  </i>
   <i type="logical" name="LTETE"> F  </i>
   <i type="logical" name="LTRIPLET"> F  </i>
   <i type="logical" name="LFXCEPS"> F  </i>
   <i type="logical" name="LFXHEG"> F  </i>
   <i type="int" name="NATURALO">     2</i>
   <i type="logical" name="LHOLEGF"> F  </i>
   <i type="logical" name="L2ORDER"> F  </i>
   <i type="logical" name="LDMP1"> F  </i>
   <i type="logical" name="LMP2LT"> F  </i>
   <i type="logical" name="LSMP2LT"> F  </i>
   <i type="logical" name="LGWLF"> F  </i>
   <i name="ENCUTGW">     -2.00000000</i>
   <i name="ENCUTGWSOFT">     -2.00000000</i>
   <i name="ENCUTLF">     -1.00000000</i>
   <i type="logical" name="LESF_SPLINES"> F  </i>
   <i type="int" name="LMAXMP2">    -1</i>
   <i name="SCISSOR">      0.00000000</i>
   <i type="int" name="NOMEGA">     0</i>
   <i type="int" name="NOMEGAR">     0</i>
   <i type="int" name="NBANDSGW">    -1</i>
   <i type="int" name="NBANDSO">    -1</i>
   <i type="int" name="NBANDSV">    -1</i>
   <i type="int" name="NELMGW">     1</i>
   <i type="int" name="NELMHF">     1</i>
   <i type="int" name="DIM">     3</i>
   <i type="int" name="IESPILON">     4</i>
   <i type="int" name="ANTIRES">     0</i>
   <i name="OMEGAMAX">    -30.00000000</i>
   <i name="OMEGAMIN">    -30.00000000</i>
   <i name="OMEGATL">   -200.00000000</i>
   <i type="int" name="OMEGAGRID">     0</i>
   <i name="CSHIFT">     -0.10000000</i>
   <i type="logical" name="LSELFENERGY"> F  </i>
   <i type="logical" name="LSPECTRAL"> F  </i>
   <i type="logical" name="LSPECTRALGW"> F  </i>
   <i type="logical" name="LSINGLES"> F  </i>
   <i type="logical" name="LFERMIGW"> F  </i>
   <i type="logical" name="ODDONLYGW"> F  </i>
   <i type="logical" name="EVENONLYGW"> F  </i>
   <i type="int" name="NKREDLFX">     1</i>
   <i type="int" name="NKREDLFY">     1</i>
   <i type="int" name="NKREDLFZ">     1</i>
   <i type="int" name="MAXMEM">  2800</i>
   <i type="int" name="TELESCOPE">     0</i>
   <i type="int" name="NTAUPAR">    -1</i>
   <i type="int" name="NOMEGAPAR">    -1</i>
   <i name="DAMP_NEWTON">      0.80000001</i>
   <i name="LAMBDA">      1.00000000</i>
  </separator>
  <separator name="External order field" >
   <i name="OFIELD_KAPPA">      0.00000000</i>
   <v name="OFIELD_K">      0.00000000      0.00000000      0.00000000</v>
   <i name="OFIELD_Q6_NEAR">      0.00000000</i>
   <i name="OFIELD_Q6_FAR">      0.00000000</i>
   <i name="OFIELD_A">      0.00000000</i>
  </separator>
  <separator name="optional k-points parameters" >
   <i type="int" name="KPOINTS_OPT_MODE">     1</i>
   <i type="logical" name="LKPOINTS_OPT"> F  </i>
  </separator>
 </parameters>
 <atominfo>
  <atoms>      24 </atoms>
  <types>       3 </types>
  <array name="atoms" >
   <dimension dim="1">ion</dimension>
   <field type="string">element</field>
   <field type="int">atomtype</field>
   <set>
    <rc><c>Mn</c><c>   1</c></rc>
    <rc><c>Mn</c><c>   1</c></rc>
    <rc><c>Mn</c><c>   1</c></rc>
    <rc><c>Mn</c><c>   1</c></rc>
    <rc><c>O </c><c>   2</c></rc>
    <rc><c>O </c><c>   2</c></rc>
    <rc><c>O </c><c>   2</c></rc>
    <rc><c>O </c><c>   2</c></rc>
    <rc><c>O </c><c>   2</c></rc>
    <rc><c>O </c><c>   2</c></rc>
    <rc><c>O </c><c>   2</c></rc>
    <rc><c>O </c><c>   2</c></rc>
    <rc><c>O </c><c>   2</c></rc>
    <rc><c>O </c><c>   2</c></rc>
    <rc><c>O </c><c>   2</c></rc>
    <rc><c>O </c><c>   2</c></rc>
    <rc><c>Li</c><c>   3</c></rc>
    <rc><c>Li</c><c>   3</c></rc>
    <rc><c>Li</c><c>   3</c></rc>
    <rc><c>Li</c><c>   3</c></rc>
    <rc><c>Li</c><c>   3</c></rc>
    <rc><c>Li</c><c>   3</c></rc>
    <rc><c>Li</c><c>   3</c></rc>
    <rc><c>Li</c><c>   3</c></rc>
   </set>
  </array>
  <array name="atomtypes" >
   <dimension dim="1">type</dimension>
   <field type="int">atomspertype</field>
   <field type="string">element</field>
   <field>mass</field>
   <field>valence</field>
   <field type="string">pseudopotential</field>
   <set>
    <rc><c>   4</c><c>Mn</c><c>     54.93800000</c><c>     13.00000000</c><c> PAW_PBE Mn_pv 07Sep2000                </c></rc>
    <rc><c>  12</c><c>O </c><c>     16.00000000</c><c>      6.00000000</c><c> PAW_PBE O 08Apr2002                    </c></rc>
    <rc><c>   8</c><c>Li</c><c>      7.01000000</c><c>      3.00000000</c><c> PAW_PBE Li_sv 23Jan2001                </c></rc>
   </set>
  </array>
 </atominfo>
 <structure name="initialpos" >
  <crystal>
   <varray name="basis" >
    <v>       4.89815900       0.00000000       0.00000000 </v>
    <v>      -2.44324852       4.24529333       0.00000000 </v>
    <v>       0.79421791       1.37344839       9.40012692 </v>
   </varray>
   <i name="volume">    195.46738364 </i>
   <varray name="rec_basis" >
    <v>       0.20415834       0.11749708      -0.03441681 </v>
    <v>       0.00000000       0.23555498      -0.03441683 </v>
    <v>       0.00000000       0.00000000       0.10638154 </v>
   </varray>
  </crystal>
  <varray name="positions" >
   <v>       0.83289082       0.16710566       0.99999862 </v>
   <v>       0.16711068       0.83288587       0.99999869 </v>
   <v>       0.33289456       0.66710373       0.50000608 </v>
   <v>       0.66711444       0.33288535       0.50000568 </v>
   <v>       0.39356550       0.39355426       0.38617247 </v>
   <v>       0.89359043       0.89358438       0.88616658 </v>
   <v>       0.10642654       0.10642028       0.11383436 </v>
   <v>       0.60641032       0.60639838       0.61383552 </v>
   <v>       0.03661870       0.68039202       0.38769659 </v>
   <v>       0.53661465       0.18038049       0.88769418 </v>
   <v>       0.81961335       0.46338152       0.11231063 </v>
   <v>       0.31961690       0.96338348       0.61230338 </v>
   <v>       0.46338977       0.81958816       0.11230453 </v>
   <v>       0.96339604       0.31959725       0.61230064 </v>
   <v>       0.68041182       0.03660614       0.38769911 </v>
   <v>       0.18040623       0.53660667       0.88770041 </v>
   <v>       0.49979636       0.50002178       0.00004463 </v>
   <v>       0.00010816       0.00014389       0.49991836 </v>
   <v>       0.74999264       0.74998337       0.25000054 </v>
   <v>       0.25001647       0.25000442       0.75000231 </v>
   <v>       0.08874518       0.41125105       0.25000230 </v>
   <v>       0.58874551       0.91125190       0.75000060 </v>
   <v>       0.41126140       0.08873559       0.25000327 </v>
   <v>       0.91126254       0.58873737       0.74999952 </v>
  </varray>
 </structure>
 <calculation>
  <scstep>
   <time name="dav">   11.24   11.31</time>
   <time name="total">   11.28   11.35</time>
   <energy>
    <i name="alphaZ">    786.13635371 </i>
    <i name="ewald">  -9706.01697261 </i>
    <i name="hartreedc">  -4416.79918274 </i>
    <i name="XCdc">    707.80289783 </i>
    <i name="pawpsdc">   9374.29792590 </i>
    <i name="pawaedc">  -9765.84709300 </i>
    <i name="eentropy">     -0.00727638 </i>
    <i name="bandstr">   -567.92686732 </i>
    <i name="atom">  14909.88213648 </i>
    <i name="e_fr_energy">   1321.52192187 </i>
    <i name="e_wo_entrp">   1321.52919825 </i>
    <i name="e_0_energy">   1321.52556006 </i>
   </energy>
  </scstep>
  <scstep>
   <time name="dav">   12.81   12.88</time>
   <time name="total">   12.81   12.89</time>
   <energy>
    <i name="e_fr_energy">    -95.37673957 </i>
    <i name="e_wo_entrp">    -95.36469218 </i>
    <i name="e_0_energy">    -95.37071587 </i>
   </energy>
  </scstep>
  <scstep>
   <time name="dav">   16.49   16.57</time>
   <time name="total">   16.49   16.57</time>
   <energy>
    <i name="e_fr_energy">   -169.11538778 </i>
    <i name="e_wo_entrp">   -169.09520151 </i>
    <i name="e_0_energy">   -169.10529465 </i>
   </energy>
  </scstep>
  <scstep>
   <time name="dav">   14.47   14.55</time>
   <time name="total">   14.48   14.56</time>
   <energy>
    <i name="e_fr_energy">   -170.20576534 </i>
    <i name="e_wo_entrp">   -170.18564743 </i>
    <i name="e_0_energy">   -170.19570638 </i>
   </energy>
  </scstep>
  <scstep>
   <time name="dav">   16.31   16.40</time>
   <time name="total">   16.50   16.59</time>
   <energy>
    <i name="e_fr_energy">   -170.23462866 </i>
    <i name="e_wo_entrp">   -170.21451075 </i>
    <i name="e_0_energy">   -170.22456970 </i>
   </energy>
  </scstep>
  <scstep>
   <time name="dav">   14.87   14.95</time>
   <time name="total">   15.09   15.17</time>
   <energy>
    <i name="e_fr_energy">   -162.69700111 </i>
    <i name="e_wo_entrp">   -162.69267847 </i>
    <i name="e_0_energy">   -162.69483979 </i>
   </energy>
  </scstep>
  <scstep>
   <time name="dav">   14.07   14.15</time>
   <time name="total">   14.29   14.37</time>
   <energy>
    <i name="e_fr_energy">   -150.14611163 </i>
    <i name="e_wo_entrp">   -150.14611163 </i>
    <i name="e_0_energy">   -150.14611163 </i>
   </energy>
  </scstep>
  <scstep>
   <time name="dav">   19.02   19.13</time>
   <time name="total">   19.24   19.35</time>
   <energy>
    <i name="e_fr_energy">   -148.12113989 </i>
    <i name="e_wo_entrp">   -148.12113989 </i>
    <i name="e_0_energy">   -148.12113989 </i>
   </energy>
  </scstep>
  <scstep>
   <time name="dav">   20.42   20.53</time>
   <time name="total">   20.64   20.75</time>
   <energy>
    <i name="e_fr_energy">   -147.82973911 </i>
    <i name="e_wo_entrp">   -147.82973911 </i>
    <i name="e_0_energy">   -147.82973911 </i>
   </energy>
  </scstep>
  <scstep>
   <time name="dav">   16.39   16.49</time>
   <time name="total">   16.61   16.71</time>
   <energy>
    <i name="e_fr_energy">   -147.78440451 </i>
    <i name="e_wo_entrp">   -147.78440451 </i>
    <i name="e_0_energy">   -147.78440451 </i>
   </energy>
  </scstep>
  <scstep>
   <time name="dav">   19.75   19.86</time>
   <time name="total">   19.97   20.08</time>
   <energy>
    <i name="e_fr_energy">   -147.76421308 </i>
    <i name="e_wo_entrp">   -147.76421308 </i>
    <i name="e_0_energy">   -147.76421308 </i>
   </energy>
  </scstep>
  <scstep>
   <time name="dav">   14.34   14.42</time>
   <time name="total">   14.56   14.64</time>
   <energy>
    <i name="e_fr_energy">   -147.76593810 </i>
    <i name="e_wo_entrp">   -147.76593810 </i>
    <i name="e_0_energy">   -147.76593810 </i>
   </energy>
  </scstep>
  <scstep>
   <time name="dav">   20.91   21.02</time>
   <time name="total">   21.13   21.24</time>
   <energy>
    <i name="e_fr_energy">   -147.76718076 </i>
    <i name="e_wo_entrp">   -147.76718076 </i>
    <i name="e_0_energy">   -147.76718076 </i>
   </energy>
  </scstep>
  <scstep>
   <time name="dav">   14.72   14.81</time>
   <time name="total">   14.94   15.02</time>
   <energy>
    <i name="e_fr_energy">   -147.76732426 </i>
    <i name="e_wo_entrp">   -147.76732426 </i>
    <i name="e_0_energy">   -147.76732426 </i>
   </energy>
  </scstep>
  <scstep>
   <time name="dav">   17.97   18.07</time>
   <time name="total">   18.19   18.29</time>
   <energy>
    <i name="e_fr_energy">   -147.76736738 </i>
    <i name="e_wo_entrp">   -147.76736738 </i>
    <i name="e_0_energy">   -147.76736738 </i>
   </energy>
  </scstep>
  <scstep>
   <time name="dav">   12.40   12.47</time>
   <time name="total">   12.43   12.50</time>
   <energy>
    <i name="alphaZ">    786.13635371 </i>
    <i name="ewald">  -9706.01697261 </i>
    <i name="hartreedc">  -4287.41435110 </i>
    <i name="XCdc">    710.59293740 </i>
    <i name="pawpsdc">  10085.33107912 </i>
    <i name="pawaedc"> -10499.89724992 </i>
    <i name="eentropy">     -0.00000000 </i>
    <i name="bandstr">  -2146.38130537 </i>
    <i name="atom">  14909.88213648 </i>
    <i name="e_fr_energy">   -147.76737228 </i>
    <i name="e_wo_entrp">   -147.76737228 </i>
    <i name="e_0_energy">   -147.76737228 </i>
   </energy>
  </scstep>
  <structure>
   <crystal>
    <varray name="basis" >
     <v>       4.89815900       0.00000000       0.00000000 </v>
     <v>      -2.44324852       4.24529333       0.00000000 </v>
     <v>       0.79421791       1.37344839       9.40012692 </v>
    </varray>
    <i name="volume">    195.46738364 </i>
    <varray name="rec_basis" >
     <v>       0.20415834       0.11749708      -0.03441681 </v>
     <v>       0.00000000       0.23555498      -0.03441683 </v>
     <v>       0.00000000       0.00000000       0.10638154 </v>
    </varray>
   </crystal>
   <varray name="positions" >
    <v>       0.83289082       0.16710566       0.99999862 </v>
    <v>       0.16711068       0.83288587       0.99999869 </v>
    <v>       0.33289456       0.66710373       0.50000608 </v>
    <v>       0.66711444       0.33288535       0.50000568 </v>
    <v>       0.39356550       0.39355426       0.38617247 </v>
    <v>       0.89359043       0.89358438       0.88616658 </v>
    <v>       0.10642654       0.10642028       0.11383436 </v>
    <v>       0.60641032       0.60639838       0.61383552 </v>
    <v>       0.03661870       0.68039202       0.38769659 </v>
    <v>       0.53661465       0.18038049       0.88769418 </v>
    <v>       0.81961335       0.46338152       0.11231063 </v>
    <v>       0.31961690       0.96338348       0.61230338 </v>
    <v>       0.46338977       0.81958816       0.11230453 </v>
    <v>       0.96339604       0.31959725       0.61230064 </v>
    <v>       0.68041182       0.03660614       0.38769911 </v>
    <v>       0.18040623       0.53660667       0.88770041 </v>
    <v>       0.49979636       0.50002178       0.00004463 </v>
    <v>       0.00010816       0.00014389       0.49991836 </v>
    <v>       0.74999264       0.74998337       0.25000054 </v>
    <v>       0.25001647       0.25000442       0.75000231 </v>
    <v>       0.08874518       0.41125105       0.25000230 </v>
    <v>       0.58874551       0.91125190       0.75000060 </v>
    <v>       0.41126140       0.08873559       0.25000327 </v>
    <v>       0.91126254       0.58873737       0.74999952 </v>
   </varray>
  </structure>
  <varray name="forces" >
   <v>       0.02742059      -0.01647622       0.00068934 </v>
   <v>      -0.02958392       0.01645398       0.00070300 </v>
   <v>       0.02895763      -0.01608089      -0.00075249 </v>
   <v>      -0.02774824       0.01656936      -0.00069830 </v>
   <v>      -0.13189933      -0.22729145      -0.38046253 </v>
   <v>      -0.13353035      -0.23076339      -0.37842588 </v>
   <v>       0.13232498       0.22903527       0.37908055 </v>
   <v>       0.13357887       0.23195720       0.37841506 </v>
   <v>      -0.15446896       0.29639039      -0.44899682 </v>
   <v>      -0.15505121       0.29791492      -0.44809762 </v>
   <v>      -0.33522896      -0.01431071       0.44733540 </v>
   <v>      -0.33496779      -0.01424247       0.44945961 </v>
   <v>       0.15338675      -0.29481382       0.44943628 </v>
   <v>       0.15367227      -0.29593211       0.45022521 </v>
   <v>       0.33206250       0.01413062      -0.44967364 </v>
   <v>       0.33229432       0.01399823      -0.45021746 </v>
   <v>       0.00653213      -0.00139802      -0.00153072 </v>
   <v>       0.00001175      -0.00329360       0.00329577 </v>
   <v>       0.00047364      -0.00027299       0.00006255 </v>
   <v>       0.00023160      -0.00063741       0.00011853 </v>
   <v>       0.06101210      -0.03543038       0.00020055 </v>
   <v>       0.06187180      -0.03564189      -0.00018328 </v>
   <v>      -0.06030429       0.03488641      -0.00018409 </v>
   <v>      -0.06104789       0.03524898       0.00020096 </v>
  </varray>
  <varray name="stress" >
   <v>     114.20961636       0.09117076       0.11191174 </v>
   <v>       0.09117040     114.31294098       0.19348939 </v>
   <v>       0.11191054       0.19348972     102.72579374 </v>
  </varray>
  <energy>
   <i name="e_fr_energy">   -147.76737228 </i>
   <i name="e_wo_entrp">   -147.76737228 </i>
   <i name="e_0_energy">   -147.76737228 </i>
  </energy>
  <time name="totalsc">  266.72  268.20</time>
 </calculation>
 <calculation>
  <scstep>
   <time name="dav">   16.76   16.86</time>
   <time name="total">   16.98   17.08</time>
   <energy>
    <i name="alphaZ">    761.13582076 </i>
    <i name="ewald">  -9639.93620800 </i>
    <i name="hartreedc">  -4206.95421366 </i>
    <i name="XCdc">    702.91418964 </i>
    <i name="pawpsdc">  10085.17948421 </i>
    <i name="pawaedc"> -10499.73933979 </i>
    <i name="eentropy">     -0.00000000 </i>
    <i name="bandstr">  -2262.07838462 </i>
    <i name="atom">  14909.88213648 </i>
    <i name="e_fr_energy">   -149.59651498 </i>
    <i name="e_wo_entrp">   -149.59651498 </i>
    <i name="e_0_energy">   -149.59651498 </i>
   </energy>
  </scstep>
  <scstep>
   <time name="dav">   13.36   13.44</time>
   <time name="total">   13.58   13.66</time>
   <energy>
    <i name="e_fr_energy">   -148.80592830 </i>
    <i name="e_wo_entrp">   -148.80592830 </i>
    <i name="e_0_energy">   -148.80592830 </i>
   </energy>
  </scstep>
  <scstep>
   <time name="dav">   14.87   14.95</time>
   <time name="total">   15.09   15.17</time>
   <energy>
    <i name="e_fr_energy">   -148.13249721 </i>
    <i name="e_wo_entrp">   -148.13249721 </i>
    <i name="e_0_energy">   -148.13249721 </i>
   </energy>
  </scstep>
  <scstep>
   <time name="dav">   19.09   19.19</time>
   <time name="total">   19.31   19.41</time>
   <energy>
    <i name="e_fr_energy">   -148.09895506 </i>
    <i name="e_wo_entrp">   -148.09895506 </i>
    <i name="e_0_energy">   -148.09895506 </i>
   </energy>
  </scstep>
  <scstep>
   <time name="dav">   21.00   21.12</time>
   <time name="total">   21.22   21.34</time>
   <energy>
    <i name="e_fr_energy">   -148.09092653 </i>
    <i name="e_wo_entrp">   -148.09092653 </i>
    <i name="e_0_energy">   -148.09092653 </i>
   </energy>
  </scstep>
  <scstep>
   <time name="dav">   17.23   17.33</time>
   <time name="total">   17.45   17.55</time>
   <energy>
    <i name="e_fr_energy">   -148.09090526 </i>
    <i name="e_wo_entrp">   -148.09090526 </i>
    <i name="e_0_energy">   -148.09090526 </i>
   </energy>
  </scstep>
  <scstep>
   <time name="dav">   13.09   13.17</time>
   <time name="total">   13.31   13.39</time>
   <energy>
    <i name="e_fr_energy">   -148.09074423 </i>
    <i name="e_wo_entrp">   -148.09074423 </i>
    <i name="e_0_energy">   -148.09074423 </i>
   </energy>
  </scstep>
  <scstep>
   <time name="dav">   19.09   19.19</time>
   <time name="total">   19.31   19.42</time>
   <energy>
    <i name="e_fr_energy">   -148.09075393 </i>
    <i name="e_wo_entrp">   -148.09075393 </i>
    <i name="e_0_energy">   -148.09075393 </i>
   </energy>
  </scstep>
  <scstep>
   <time name="dav">   11.78   11.85</time>
   <time name="total">   11.81   11.88</time>
   <energy>
    <i name="alphaZ">    761.13582076 </i>
    <i name="ewald">  -9639.93620800 </i>
    <i name="hartreedc">  -4298.99514945 </i>
    <i name="XCdc">    708.82959745 </i>
    <i name="pawpsdc">   9987.78597134 </i>
    <i name="pawaedc"> -10401.15201333 </i>
    <i name="eentropy">     -0.00000000 </i>
    <i name="bandstr">  -2175.64090891 </i>
    <i name="atom">  14909.88213648 </i>
    <i name="e_fr_energy">   -148.09075367 </i>
    <i name="e_wo_entrp">   -148.09075367 </i>
    <i name="e_0_energy">   -148.09075367 </i>
   </energy>
  </scstep>
  <structure>
   <crystal>
    <varray name="basis" >
     <v>       4.95303459       0.00004381       0.00005377 </v>
     <v>      -2.47058302       4.29287585       0.00005375 </v>
     <v>       0.80323125       1.38903500       9.49488502 </v>
    </varray>
    <i name="volume">    201.88777357 </i>
    <varray name="rec_basis" >
     <v>       0.20189577       0.11619299      -0.03407784 </v>
     <v>      -0.00000169       0.23294353      -0.03407786 </v>
     <v>      -0.00000114      -0.00000198       0.10532025 </v>
    </varray>
   </crystal>
   <varray name="positions" >
    <v>       0.83296103       0.16703031       0.00000004 </v>
    <v>       0.16703097       0.83296019       0.00000013 </v>
    <v>       0.33297268       0.66703113       0.50000454 </v>
    <v>       0.66704315       0.33296113       0.50000425 </v>
    <v>       0.39278319       0.39277378       0.38539144 </v>
    <v>       0.89279247       0.89278677       0.88538973 </v>
    <v>       0.10721539       0.10720960       0.11461256 </v>
    <v>       0.60721118       0.60720142       0.61461235 </v>
    <v>       0.03698036       0.68203747       0.38677487 </v>
    <v>       0.53697688       0.18203227       0.88677430 </v>
    <v>       0.81796312       0.46301938       0.11322894 </v>
    <v>       0.31796644       0.96302023       0.61322605 </v>
    <v>       0.46302713       0.81794959       0.11322716 </v>
    <v>       0.96303146       0.31795307       0.61322489 </v>
    <v>       0.68205072       0.03696902       0.38677600 </v>
    <v>       0.18204610       0.53696931       0.88677618 </v>
    <v>       0.49981994       0.50001644       0.00004149 </v>
    <v>       0.00009855       0.00012673       0.49992513 </v>
    <v>       0.74999385       0.74998209       0.25000067 </v>
    <v>       0.25001586       0.25000144       0.75000255 </v>
    <v>       0.08890508       0.41108987       0.25000271 </v>
    <v>       0.58890857       0.91109001       0.75000022 </v>
    <v>       0.41110304       0.08889429       0.25000289 </v>
    <v>       0.91110182       0.58889746       0.74999993 </v>
   </varray>
  </structure>
  <varray name="forces" >
   <v>      -0.02275342       0.01282903      -0.00005120 </v>
   <v>       0.01996655      -0.01187606      -0.00004943 </v>
   <v>      -0.02201649       0.01308876      -0.00001878 </v>
   <v>       0.02074023      -0.01164808       0.00001611 </v>
   <v>       0.02263468       0.02016392      -0.03609920 </v>
   <v>       0.01298075       0.02482186      -0.03702975 </v>
   <v>      -0.01545732      -0.02432737       0.03754355 </v>
   <v>      -0.00518385      -0.02787755       0.03483717 </v>
   <v>       0.05569612      -0.01914779       0.00390577 </v>
   <v>       0.05517567      -0.01869702       0.00463948 </v>
   <v>       0.04372430      -0.03869779      -0.00465991 </v>
   <v>       0.04402307      -0.03859346      -0.00416438 </v>
   <v>      -0.05812480       0.02076051      -0.00391118 </v>
   <v>      -0.05768910       0.02049108      -0.00383091 </v>
   <v>      -0.04688764       0.03991460       0.00358671 </v>
   <v>      -0.04700822       0.03981302       0.00386920 </v>
   <v>       0.00414528      -0.00058601      -0.00122115 </v>
   <v>      -0.00074929      -0.00203221       0.00262376 </v>
   <v>      -0.00039748       0.00030844      -0.00001754 </v>
   <v>      -0.00061452      -0.00001117       0.00007514 </v>
   <v>       0.02033307      -0.01184741       0.00009533 </v>
   <v>       0.02096785      -0.01200601      -0.00011479 </v>
   <v>      -0.02149067       0.01242958      -0.00017409 </v>
   <v>      -0.02201477       0.01272714       0.00015008 </v>
  </varray>
  <varray name="stress" >
   <v>      39.19645897      -0.55494192       0.93807631 </v>
   <v>      -0.55494242      38.55613954       1.62193160 </v>
   <v>       0.93807589       1.62193111      33.12922954 </v>
  </varray>
  <energy>
   <i name="e_fr_energy">   -148.09075367 </i>
   <i name="e_wo_entrp">   -148.09075367 </i>
   <i name="e_0_energy">   -148.09075367 </i>
  </energy>
  <time name="totalsc">  155.99  156.86</time>
 </calculation>
 <calculation>
  <scstep>
   <time name="dav">   17.29   17.39</time>
   <time name="total">   17.51   17.60</time>
   <energy>
    <i name="alphaZ">    749.86313113 </i>
    <i name="ewald">  -9609.23024084 </i>
    <i name="hartreedc">  -4261.96118717 </i>
    <i name="XCdc">    705.28283987 </i>
    <i name="pawpsdc">   9987.78794329 </i>
    <i name="pawaedc"> -10401.17143555 </i>
    <i name="eentropy">     -0.00000000 </i>
    <i name="bandstr">  -2228.90264885 </i>
    <i name="atom">  14909.88213648 </i>
    <i name="e_fr_energy">   -148.44946164 </i>
    <i name="e_wo_entrp">   -148.44946164 </i>
    <i name="e_0_energy">   -148.44946164 </i>
   </energy>
  </scstep>
  <scstep>
   <time name="dav">   13.07   13.15</time>
   <time name="total">   13.29   13.37</time>
   <energy>
    <i name="e_fr_energy">   -148.26505923 </i>
    <i name="e_wo_entrp">   -148.26505923 </i>
    <i name="e_0_energy">   -148.26505923 </i>
   </energy>
  </scstep>
  <scstep>
   <time name="dav">   15.52   15.61</time>
   <time name="total">   15.75   15.84</time>
   <energy>
    <i name="e_fr_energy">   -148.13802056 </i>
    <i name="e_wo_entrp">   -148.13802056 </i>
    <i name="e_0_energy">   -148.13802056 </i>
   </energy>
  </scstep>
  <scstep>
   <time name="dav">   18.12   18.23</time>
   <time name="total">   18.34   18.45</time>
   <energy>
    <i name="e_fr_energy">   -148.12708443 </i>
    <i name="e_wo_entrp">   -148.12708443 </i>
    <i name="e_0_energy">   -148.12708443 </i>
   </energy>
  </scstep>
  <scstep>
   <time name="dav">   18.96   19.07</time>
   <time name="total">   19.18   19.29</time>
   <energy>
    <i name="e_fr_energy">   -148.12568493 </i>
    <i name="e_wo_entrp">   -148.12568493 </i>
    <i name="e_0_energy">   -148.12568493 </i>
   </energy>
  </scstep>
  <scstep>
   <time name="dav">   19.01   19.12</time>
   <time name="total">   19.23   19.34</time>
   <energy>
    <i name="e_fr_energy">   -148.12559312 </i>
    <i name="e_wo_entrp">   -148.12559312 </i>
    <i name="e_0_energy">   -148.12559312 </i>
   </energy>
  </scstep>
  <scstep>
   <time name="dav">   14.18   14.26</time>
   <time name="total">   14.40   14.48</time>
   <energy>
    <i name="e_fr_energy">   -148.12557559 </i>
    <i name="e_wo_entrp">   -148.12557559 </i>
    <i name="e_0_energy">   -148.12557559 </i>
   </energy>
  </scstep>
  <scstep>
   <time name="dav">   16.64   16.73</time>
   <time name="total">   16.67   16.76</time>
   <energy>
    <i name="alphaZ">    749.86313113 </i>
    <i name="ewald">  -9609.23024084 </i>
    <i name="hartreedc">  -4305.06472571 </i>
    <i name="XCdc">    708.06144856 </i>
    <i name="pawpsdc">   9946.43485064 </i>
    <i name="pawaedc"> -10359.27783344 </i>
    <i name="eentropy">     -0.00000000 </i>
    <i name="bandstr">  -2188.79434587 </i>
    <i name="atom">  14909.88213648 </i>
    <i name="e_fr_energy">   -148.12557906 </i>
    <i name="e_wo_entrp">   -148.12557905 </i>
    <i name="e_0_energy">   -148.12557906 </i>
   </energy>
  </scstep>
  <structure>
   <crystal>
    <varray name="basis" >
     <v>       4.97857078       0.00006419       0.00007879 </v>
     <v>      -2.48330305       4.31501823       0.00007877 </v>
     <v>       0.80742559       1.39628818       9.53898042 </v>
    </varray>
    <i name="volume">    204.92275171 </i>
    <varray name="rec_basis" >
     <v>       0.20085990       0.11559596      -0.03392236 </v>
     <v>      -0.00000245       0.23174794      -0.03392238 </v>
     <v>      -0.00000166      -0.00000287       0.10483357 </v>
    </varray>
   </crystal>
   <varray name="positions" >
    <v>       0.83299334       0.16699563       0.00000069 </v>
    <v>       0.16699429       0.83299440       0.00000080 </v>
    <v>       0.33300863       0.66699773       0.50000382 </v>
    <v>       0.66701035       0.33299600       0.50000359 </v>
    <v>       0.39242333       0.39241477       0.38503162 </v>
    <v>       0.89242541       0.89241987       0.88503183 </v>
    <v>       0.10757827       0.10757269       0.11497107 </v>
    <v>       0.60757958       0.60757083       0.61497023 </v>
    <v>       0.03714696       0.68279486       0.38635022 </v>
    <v>       0.53714374       0.18279257       0.88635051 </v>
    <v>       0.81720353       0.46285255       0.11365202 </v>
    <v>       0.31720675       0.96285291       0.61365114 </v>
    <v>       0.46286007       0.81719536       0.11365222 </v>
    <v>       0.96286352       0.31719626       0.61365069 </v>
    <v>       0.68280509       0.03713618       0.38635071 </v>
    <v>       0.18280093       0.53713636       0.88635038 </v>
    <v>       0.49983079       0.50001399       0.00004004 </v>
    <v>       0.00009413       0.00011883       0.49992824 </v>
    <v>       0.74999440       0.74998150       0.25000073 </v>
    <v>       0.25001558       0.25000007       0.75000267 </v>
    <v>       0.08897867       0.41101569       0.25000290 </v>
    <v>       0.58898361       0.91101551       0.75000005 </v>
    <v>       0.41103017       0.08896732       0.25000272 </v>
    <v>       0.91102786       0.58897113       0.75000012 </v>
   </varray>
  </structure>
  <varray name="forces" >
   <v>      -0.04116279       0.02357840      -0.00033944 </v>
   <v>       0.04022513      -0.02347797      -0.00033949 </v>
   <v>      -0.04071653       0.02379915       0.00024363 </v>
   <v>       0.04064028      -0.02320926       0.00027172 </v>
   <v>       0.07074158       0.12278605       0.15556089 </v>
   <v>       0.07025669       0.12228373       0.15633191 </v>
   <v>      -0.07108153      -0.12211867      -0.15585946 </v>
   <v>      -0.07070336      -0.12180091      -0.15647542 </v>
   <v>       0.11569918      -0.12397900       0.20252314 </v>
   <v>       0.11523962      -0.12390597       0.20312331 </v>
   <v>       0.16474889      -0.03829535      -0.20283352 </v>
   <v>       0.16508969      -0.03814785      -0.20307106 </v>
   <v>      -0.11650653       0.12434021      -0.20265774 </v>
   <v>      -0.11610511       0.12442554      -0.20292850 </v>
   <v>      -0.16580456       0.03887143       0.20235624 </v>
   <v>      -0.16601545       0.03873492       0.20293144 </v>
   <v>       0.00435047      -0.00093870      -0.00108974 </v>
   <v>       0.00000847      -0.00215978       0.00228586 </v>
   <v>       0.00033523      -0.00009297      -0.00006421 </v>
   <v>       0.00013571      -0.00038652       0.00008753 </v>
   <v>       0.00401345      -0.00239022       0.00003508 </v>
   <v>       0.00455358      -0.00251981      -0.00006074 </v>
   <v>      -0.00375150       0.00217375      -0.00018679 </v>
   <v>      -0.00419062       0.00242980       0.00015534 </v>
  </varray>
  <varray name="stress" >
   <v>      11.10411020      -0.49120969       1.06962475 </v>
   <v>      -0.49120996      10.53821340       1.84972765 </v>
   <v>       1.06962550       1.84972772       2.51025258 </v>
  </varray>
  <energy>
   <i name="e_fr_energy">   -148.12557906 </i>
   <i name="e_wo_entrp">   -148.12557905 </i>
   <i name="e_0_energy">   -148.12557906 </i>
  </energy>
  <time name="totalsc">  142.24  143.05</time>
 </calculation>
 <calculation>
  <scstep>
   <time name="dav">   17.77   17.86</time>
   <time name="total">   17.99   18.09</time>
   <energy>
    <i name="alphaZ">    749.53983224 </i>
    <i name="ewald">  -9608.34034298 </i>
    <i name="hartreedc">  -4303.89010128 </i>
    <i name="XCdc">    707.95201871 </i>
    <i name="pawpsdc">   9946.26459674 </i>
    <i name="pawaedc"> -10359.12220199 </i>
    <i name="eentropy">     -0.00000000 </i>
    <i name="bandstr">  -2190.41183689 </i>
    <i name="atom">  14909.88213648 </i>
    <i name="e_fr_energy">   -148.12589897 </i>
    <i name="e_wo_entrp">   -148.12589897 </i>
    <i name="e_0_energy">   -148.12589897 </i>
   </energy>
  </scstep>
  <scstep>
   <time name="dav">   14.64   14.72</time>
   <time name="total">   14.86   14.95</time>
   <energy>
    <i name="e_fr_energy">   -148.12573572 </i>
    <i name="e_wo_entrp">   -148.12573572 </i>
    <i name="e_0_energy">   -148.12573572 </i>
   </energy>
  </scstep>
  <scstep>
   <time name="dav">   16.48   16.57</time>
   <time name="total">   16.70   16.79</time>
   <energy>
    <i name="e_fr_energy">   -148.12565112 </i>
    <i name="e_wo_entrp">   -148.12565112 </i>
    <i name="e_0_energy">   -148.12565112 </i>
   </energy>
  </scstep>
  <scstep>
   <time name="dav">   16.71   16.80</time>
   <time name="total">   16.94   17.03</time>
   <energy>
    <i name="e_fr_energy">   -148.12563967 </i>
    <i name="e_wo_entrp">   -148.12563967 </i>
    <i name="e_0_energy">   -148.12563967 </i>
   </energy>
  </scstep>
  <scstep>
   <time name="dav">   12.95   13.02</time>
   <time name="total">   12.98   13.05</time>
   <energy>
    <i name="alphaZ">    749.53983224 </i>
    <i name="ewald">  -9608.34034298 </i>
    <i name="hartreedc">  -4305.10030928 </i>
    <i name="XCdc">    708.02990230 </i>
    <i name="pawpsdc">   9945.50275429 </i>
    <i name="pawaedc"> -10358.36394207 </i>
    <i name="eentropy">     -0.00000000 </i>
    <i name="bandstr">  -2189.27566973 </i>
    <i name="atom">  14909.88213648 </i>
    <i name="e_fr_energy">   -148.12563876 </i>
    <i name="e_wo_entrp">   -148.12563876 </i>
    <i name="e_0_energy">   -148.12563876 </i>
   </energy>
  </scstep>
  <structure>
   <crystal>
    <varray name="basis" >
     <v>       4.97931070       0.00006478       0.00007952 </v>
     <v>      -2.48367162       4.31565981       0.00007949 </v>
     <v>       0.80754712       1.39649834       9.54025810 </v>
    </varray>
    <i name="volume">    205.01114101 </i>
    <varray name="rec_basis" >
     <v>       0.20083005       0.11557876      -0.03391787 </v>
     <v>      -0.00000247       0.23171348      -0.03391790 </v>
     <v>      -0.00000167      -0.00000289       0.10481953 </v>
    </varray>
   </crystal>
   <varray name="positions" >
    <v>       0.83299428       0.16699463       0.00000071 </v>
    <v>       0.16699323       0.83299538       0.00000082 </v>
    <v>       0.33300967       0.66699676       0.50000380 </v>
    <v>       0.66700940       0.33299701       0.50000357 </v>
    <v>       0.39241296       0.39240442       0.38502124 </v>
    <v>       0.89241483       0.89240929       0.88502151 </v>
    <v>       0.10758873       0.10758315       0.11498141 </v>
    <v>       0.60759020       0.60758147       0.61498056 </v>
    <v>       0.03715177       0.68281669       0.38633797 </v>
    <v>       0.53714855       0.18281449       0.88633828 </v>
    <v>       0.81718163       0.46284774       0.11366422 </v>
    <v>       0.31718485       0.96284808       0.61366340 </v>
    <v>       0.46285526       0.81717362       0.11366448 </v>
    <v>       0.96285868       0.31717445       0.61366297 </v>
    <v>       0.68282684       0.03714100       0.38633844 </v>
    <v>       0.18282269       0.53714117       0.88633810 </v>
    <v>       0.49983111       0.50001392       0.00004000 </v>
    <v>       0.00009400       0.00011860       0.49992833 </v>
    <v>       0.74999442       0.74998148       0.25000073 </v>
    <v>       0.25001557       0.25000003       0.75000267 </v>
    <v>       0.08898079       0.41101355       0.25000291 </v>
    <v>       0.58898578       0.91101336       0.75000005 </v>
    <v>       0.41102807       0.08896943       0.25000271 </v>
    <v>       0.91102573       0.58897326       0.75000013 </v>
   </varray>
  </structure>
  <varray name="forces" >
   <v>      -0.04192808       0.02453597      -0.00075696 </v>
   <v>       0.04073733      -0.02325611      -0.00075680 </v>
   <v>      -0.04148376       0.02475078      -0.00015781 </v>
   <v>       0.04094896      -0.02287617      -0.00012999 </v>
   <v>       0.08254620       0.13204252       0.16163788 </v>
   <v>       0.08128172       0.14217035       0.16189872 </v>
   <v>      -0.08236611      -0.14081089      -0.16224471 </v>
   <v>      -0.08200282      -0.14053113      -0.16290141 </v>
   <v>       0.11836330      -0.12774394       0.21009723 </v>
   <v>       0.11789525      -0.12766470       0.21064870 </v>
   <v>       0.16977242      -0.03795395      -0.21117012 </v>
   <v>       0.17013481      -0.03780486      -0.21147343 </v>
   <v>      -0.11686404       0.12563029      -0.20160539 </v>
   <v>      -0.11903012       0.12936868      -0.21133529 </v>
   <v>      -0.17109413       0.03971318       0.20993418 </v>
   <v>      -0.17128671       0.03957547       0.21047124 </v>
   <v>       0.00420025      -0.00033778      -0.00153193 </v>
   <v>      -0.00012191      -0.00156120       0.00186894 </v>
   <v>       0.00020211       0.00049714      -0.00046846 </v>
   <v>       0.00000282       0.00020423      -0.00032834 </v>
   <v>       0.00347987      -0.00156850      -0.00037026 </v>
   <v>       0.00401652      -0.00169777      -0.00047530 </v>
   <v>      -0.00348368       0.00253161      -0.00059062 </v>
   <v>      -0.00392018       0.00278678      -0.00026008 </v>
  </varray>
  <varray name="stress" >
   <v>      11.20620971      -0.38391576       1.04400627 </v>
   <v>      -0.38391490      10.67675868       1.85708891 </v>
   <v>       1.04400728       1.85708887       2.33960233 </v>
  </varray>
  <energy>
   <i name="e_fr_energy">   -148.12563876 </i>
   <i name="e_wo_entrp">   -148.12563876 </i>
   <i name="e_0_energy">   -148.12563876 </i>
  </energy>
  <time name="totalsc">   87.33   87.82</time>
 </calculation>
 <calculation>
  <scstep>
   <time name="dav">   11.07   11.13</time>
   <time name="total">   11.28   11.35</time>
   <energy>
    <i name="alphaZ">    746.65453393 </i>
    <i name="ewald">  -9579.92027948 </i>
    <i name="hartreedc">  -4314.50205353 </i>
    <i name="XCdc">    707.21735714 </i>
    <i name="pawpsdc">   9945.12500627 </i>
    <i name="pawaedc"> -10357.98155707 </i>
    <i name="eentropy">     -0.00000000 </i>
    <i name="bandstr">  -2204.64130408 </i>
    <i name="atom">  14909.88213648 </i>
    <i name="e_fr_energy">   -148.16616035 </i>
    <i name="e_wo_entrp">   -148.16616035 </i>
    <i name="e_0_energy">   -148.16616035 </i>
   </energy>
  </scstep>
  <scstep>
   <time name="dav">   18.95   19.06</time>
   <time name="total">   19.17   19.28</time>
   <energy>
    <i name="e_fr_energy">   -148.15312992 </i>
    <i name="e_wo_entrp">   -148.15312992 </i>
    <i name="e_0_energy">   -148.15312992 </i>
   </energy>
  </scstep>
  <scstep>
   <time name="dav">   14.34   14.42</time>
   <time name="total">   14.56   14.64</time>
   <energy>
    <i name="e_fr_energy">   -148.14489238 </i>
    <i name="e_wo_entrp">   -148.14489238 </i>
    <i name="e_0_energy">   -148.14489238 </i>
   </energy>
  </scstep>
  <scstep>
   <time name="dav">   20.35   20.46</time>
   <time name="total">   20.57   20.69</time>
   <energy>
    <i name="e_fr_energy">   -148.14399030 </i>
    <i name="e_wo_entrp">   -148.14399030 </i>
    <i name="e_0_energy">   -148.14399030 </i>
   </energy>
  </scstep>
  <scstep>
   <time name="dav">   17.09   17.19</time>
   <time name="total">   17.31   17.41</time>
   <energy>
    <i name="e_fr_energy">   -148.14391599 </i>
    <i name="e_wo_entrp">   -148.14391599 </i>
    <i name="e_0_energy">   -148.14391599 </i>
   </energy>
  </scstep>
  <scstep>
   <time name="dav">   19.46   19.57</time>
   <time name="total">   19.49   19.60</time>
   <energy>
    <i name="alphaZ">    746.65453393 </i>
    <i name="ewald">  -9579.92027948 </i>
    <i name="hartreedc">  -4327.17225067 </i>
    <i name="XCdc">    707.94937210 </i>
    <i name="pawpsdc">   9944.42753898 </i>
    <i name="pawaedc"> -10357.26018368 </i>
    <i name="eentropy">     -0.00000000 </i>
    <i name="bandstr">  -2192.70478949 </i>
    <i name="atom">  14909.88213648 </i>
    <i name="e_fr_energy">   -148.14392184 </i>
    <i name="e_wo_entrp">   -148.14392184 </i>
    <i name="e_0_energy">   -148.14392184 </i>
   </energy>
  </scstep>
  <structure>
   <crystal>
    <varray name="basis" >
     <v>       4.98753952      -0.00014906       0.00066753 </v>
     <v>      -2.48796157       4.32264253       0.00069265 </v>
     <v>       0.80994817       1.40069229       9.54650322 </v>
    </varray>
    <i name="volume">    205.80336589 </i>
    <varray name="rec_basis" >
     <v>       0.20050766       0.11541062      -0.03394495 </v>
     <v>       0.00001146       0.23135201      -0.03394565 </v>
     <v>      -0.00001402      -0.00002486       0.10475523 </v>
    </varray>
   </crystal>
   <varray name="positions" >
    <v>       0.83287913       0.16711282      -0.00000092 </v>
    <v>       0.16710721       0.83288452      -0.00000081 </v>
    <v>       0.33289678       0.66711567       0.50000340 </v>
    <v>       0.66712504       0.33288761       0.50000323 </v>
    <v>       0.39294356       0.39290878       0.38535275 </v>
    <v>       0.89296408       0.89296251       0.88535374 </v>
    <v>       0.10703813       0.10703656       0.11464846 </v>
    <v>       0.60704271       0.60703720       0.61464610 </v>
    <v>       0.03720391       0.68209637       0.38677208 </v>
    <v>       0.53719852       0.18209438       0.88677368 </v>
    <v>       0.81790486       0.46280083       0.11322761 </v>
    <v>       0.31791018       0.96280208       0.61322627 </v>
    <v>       0.46279819       0.81787773       0.11324922 </v>
    <v>       0.96280846       0.31790366       0.61322620 </v>
    <v>       0.68210281       0.03719744       0.38677215 </v>
    <v>       0.18209714       0.53719655       0.88677295 </v>
    <v>       0.49985002       0.50001318       0.00003650 </v>
    <v>       0.00008800       0.00010903       0.49993271 </v>
    <v>       0.74999687       0.74998421       0.24999970 </v>
    <v>       0.25001629       0.25000117       0.75000195 </v>
    <v>       0.08899746       0.41100063       0.25000210 </v>
    <v>       0.58900460       0.91099985       0.74999898 </v>
    <v>       0.41101447       0.08898768       0.25000139 </v>
    <v>       0.91101058       0.58899257       0.74999957 </v>
   </varray>
  </structure>
  <varray name="forces" >
   <v>      -0.00810900       0.00390600       0.00097564 </v>
   <v>       0.00454931      -0.00241725       0.00103126 </v>
   <v>      -0.00766096       0.00383960      -0.00093495 </v>
   <v>       0.00410476      -0.00260280      -0.00064676 </v>
   <v>       0.07979328       0.12860570       0.09061025 </v>
   <v>       0.08032583       0.12225033       0.09029319 </v>
   <v>      -0.06607240      -0.13109251      -0.09084458 </v>
   <v>      -0.06598584      -0.13083079      -0.09063097 </v>
   <v>       0.11116155      -0.12544045       0.16380885 </v>
   <v>       0.11102110      -0.12539010       0.16397153 </v>
   <v>       0.16378450      -0.03414836      -0.16425077 </v>
   <v>       0.16405634      -0.03417673      -0.16381067 </v>
   <v>      -0.11095597       0.12325640      -0.16265983 </v>
   <v>      -0.11477268       0.12729299      -0.16368736 </v>
   <v>      -0.16755685       0.03576711       0.16376374 </v>
   <v>      -0.16777420       0.03596903       0.16373101 </v>
   <v>       0.00166651       0.00042383      -0.00091888 </v>
   <v>      -0.00185271      -0.00064310       0.00166921 </v>
   <v>      -0.00158305       0.00078046      -0.00015442 </v>
   <v>      -0.00164713       0.00072338      -0.00025909 </v>
   <v>       0.00146952      -0.00082195      -0.00016844 </v>
   <v>       0.00182154      -0.00091273      -0.00038472 </v>
   <v>      -0.00471261       0.00270677      -0.00029188 </v>
   <v>      -0.00507087       0.00295519      -0.00021137 </v>
  </varray>
  <varray name="stress" >
   <v>       7.21279716       0.70729845       0.21737466 </v>
   <v>       0.70729838       8.07158141       0.29656216 </v>
   <v>       0.21737480       0.29656180       5.25432686 </v>
  </varray>
  <energy>
   <i name="e_fr_energy">   -148.14392184 </i>
   <i name="e_wo_entrp">   -148.14392184 </i>
   <i name="e_0_energy">   -148.14392184 </i>
  </energy>
  <time name="totalsc">  110.25  110.86</time>
 </calculation>
 <calculation>
  <scstep>
   <time name="dav">   11.06   11.12</time>
   <time name="total">   11.28   11.35</time>
   <energy>
    <i name="alphaZ">    738.09050912 </i>
    <i name="ewald">  -9494.44888090 </i>
    <i name="hartreedc">  -4355.91950447 </i>
    <i name="XCdc">    705.53013073 </i>
    <i name="pawpsdc">   9944.25088950 </i>
    <i name="pawaedc"> -10357.08832746 </i>
    <i name="eentropy">     -0.00000000 </i>
    <i name="bandstr">  -2238.65838373 </i>
    <i name="atom">  14909.88213648 </i>
    <i name="e_fr_energy">   -148.36143073 </i>
    <i name="e_wo_entrp">   -148.36143073 </i>
    <i name="e_0_energy">   -148.36143073 </i>
   </energy>
  </scstep>
  <scstep>
   <time name="dav">   18.88   18.98</time>
   <time name="total">   19.10   19.20</time>
   <energy>
    <i name="e_fr_energy">   -148.24993245 </i>
    <i name="e_wo_entrp">   -148.24993245 </i>
    <i name="e_0_energy">   -148.24993245 </i>
   </energy>
  </scstep>
  <scstep>
   <time name="dav">   14.04   14.12</time>
   <time name="total">   14.26   14.34</time>
   <energy>
    <i name="e_fr_energy">   -148.17002884 </i>
    <i name="e_wo_entrp">   -148.17002884 </i>
    <i name="e_0_energy">   -148.17002884 </i>
   </energy>
  </scstep>
  <scstep>
   <time name="dav">   20.38   20.50</time>
   <time name="total">   20.60   20.72</time>
   <energy>
    <i name="e_fr_energy">   -148.16331732 </i>
    <i name="e_wo_entrp">   -148.16331732 </i>
    <i name="e_0_energy">   -148.16331732 </i>
   </energy>
  </scstep>
  <scstep>
   <time name="dav">   16.87   16.96</time>
   <time name="total">   17.09   17.18</time>
   <energy>
    <i name="e_fr_energy">   -148.16257704 </i>
    <i name="e_wo_entrp">   -148.16257704 </i>
    <i name="e_0_energy">   -148.16257704 </i>
   </energy>
  </scstep>
  <scstep>
   <time name="dav">   18.70   18.81</time>
   <time name="total">   18.92   19.03</time>
   <energy>
    <i name="e_fr_energy">   -148.16263123 </i>
    <i name="e_wo_entrp">   -148.16263123 </i>
    <i name="e_0_energy">   -148.16263123 </i>
   </energy>
  </scstep>
  <scstep>
   <time name="dav">   15.17   15.25</time>
   <time name="total">   15.39   15.47</time>
   <energy>
    <i name="e_fr_energy">   -148.16263220 </i>
    <i name="e_wo_entrp">   -148.16263220 </i>
    <i name="e_0_energy">   -148.16263220 </i>
   </energy>
  </scstep>
  <scstep>
   <time name="dav">   14.07   14.15</time>
   <time name="total">   14.10   14.18</time>
   <energy>
    <i name="alphaZ">    738.09050912 </i>
    <i name="ewald">  -9494.44888090 </i>
    <i name="hartreedc">  -4394.28809006 </i>
    <i name="XCdc">    707.74684031 </i>
    <i name="pawpsdc">   9941.88064864 </i>
    <i name="pawaedc"> -10354.71148032 </i>
    <i name="eentropy">     -0.00000000 </i>
    <i name="bandstr">  -2202.31431918 </i>
    <i name="atom">  14909.88213648 </i>
    <i name="e_fr_energy">   -148.16263592 </i>
    <i name="e_wo_entrp">   -148.16263592 </i>
    <i name="e_0_energy">   -148.16263592 </i>
   </energy>
  </scstep>
  <structure>
   <crystal>
    <varray name="basis" >
     <v>       5.01222597      -0.00079059       0.00243158 </v>
     <v>      -2.50083143       4.34359071       0.00253213 </v>
     <v>       0.81715132       1.41327413       9.56523861 </v>
    </varray>
    <i name="volume">    208.19129137 </i>
    <varray name="rec_basis" >
     <v>       0.19954679       0.11490931      -0.03402511 </v>
     <v>       0.00005283       0.23027452      -0.03402782 </v>
     <v>      -0.00005074      -0.00009017       0.10456288 </v>
    </varray>
   </crystal>
   <varray name="positions" >
    <v>       0.83253428       0.16746679      -0.00000581 </v>
    <v>       0.16744856       0.83255248      -0.00000569 </v>
    <v>       0.33255868       0.66747178       0.50000219 </v>
    <v>       0.66747139       0.33255995       0.50000222 </v>
    <v>       0.39453214       0.39441883       0.38634643 </v>
    <v>       0.89460857       0.89461887       0.88634957 </v>
    <v>       0.10538962       0.10540005       0.11365047 </v>
    <v>       0.60540351       0.60540761       0.61364361 </v>
    <v>       0.03735893       0.67993786       0.38807370 </v>
    <v>       0.53734704       0.17993649       0.88807915 </v>
    <v>       0.82007202       0.46266146       0.11191853 </v>
    <v>       0.32008368       0.96266544       0.61191561 </v>
    <v>       0.46262838       0.81998763       0.11200413 </v>
    <v>       0.96265922       0.32008881       0.61191662 </v>
    <v>       0.67993321       0.03736537       0.38807253 </v>
    <v>       0.17992304       0.53736127       0.88807679 </v>
    <v>       0.49990669       0.50001097       0.00002599 </v>
    <v>       0.00007001       0.00008033       0.49994582 </v>
    <v>       0.75000421       0.74999238       0.24999659 </v>
    <v>       0.25001847       0.25000457       0.74999979 </v>
    <v>       0.08904740       0.41096191       0.24999968 </v>
    <v>       0.58906097       0.91095939       0.74999578 </v>
    <v>       0.41097376       0.08904235       0.24999743 </v>
    <v>       0.91096523       0.58905041       0.74999788 </v>
   </varray>
  </structure>
  <varray name="forces" >
   <v>       0.09657810      -0.05837933       0.00567855 </v>
   <v>      -0.09340016       0.05565064       0.00595628 </v>
   <v>       0.09703897      -0.05911208      -0.00377375 </v>
   <v>      -0.09666845       0.05419260      -0.00271999 </v>
   <v>       0.01707058       0.05654286      -0.05810096 </v>
   <v>       0.02622267       0.04320796      -0.06360517 </v>
   <v>      -0.02471243      -0.04550701       0.06135475 </v>
   <v>      -0.02538330      -0.04521302       0.06418551 </v>
   <v>      -0.02443381      -0.01632111      -0.09068576 </v>
   <v>      -0.02358629      -0.01649877      -0.09155547 </v>
   <v>       0.00181225       0.02749871       0.09103668 </v>
   <v>       0.00184663       0.02686498       0.09378500 </v>
   <v>       0.01683568       0.02619121       0.07791289 </v>
   <v>       0.02571089       0.01419594       0.09376843 </v>
   <v>       0.00082427      -0.03108886      -0.09028782 </v>
   <v>       0.00046727      -0.02989378      -0.09205280 </v>
   <v>       0.00208167      -0.00028369      -0.00013422 </v>
   <v>       0.00020690      -0.00106109       0.00073356 </v>
   <v>      -0.00019064      -0.00073433       0.00020678 </v>
   <v>       0.00020890      -0.00011262      -0.00056162 </v>
   <v>       0.00175721      -0.00062866      -0.00009664 </v>
   <v>       0.00154339      -0.00063637      -0.00062639 </v>
   <v>      -0.00086687       0.00046146       0.00015529 </v>
   <v>      -0.00096343       0.00066434      -0.00057314 </v>
  </varray>
  <varray name="stress" >
   <v>      -5.98806704       1.00438106      -0.39867664 </v>
   <v>       1.00438099      -4.76906317      -0.75678471 </v>
   <v>      -0.39867665      -0.75678478       8.39082583 </v>
  </varray>
  <energy>
   <i name="e_fr_energy">   -148.16263592 </i>
   <i name="e_wo_entrp">   -148.16263592 </i>
   <i name="e_0_energy">   -148.16263592 </i>
  </energy>
  <time name="totalsc">  138.54  139.31</time>
 </calculation>
 <calculation>
  <scstep>
   <time name="dav">   11.06   11.12</time>
   <time name="total">   11.28   11.35</time>
   <energy>
    <i name="alphaZ">    740.13647124 </i>
    <i name="ewald">  -9514.99175048 </i>
    <i name="hartreedc">  -4387.27954249 </i>
    <i name="XCdc">    708.32376810 </i>
    <i name="pawpsdc">   9941.71335342 </i>
    <i name="pawaedc"> -10354.56692804 </i>
    <i name="eentropy">     -0.00000000 </i>
    <i name="bandstr">  -2191.39289301 </i>
    <i name="atom">  14909.88213648 </i>
    <i name="e_fr_energy">   -148.17538479 </i>
    <i name="e_wo_entrp">   -148.17538479 </i>
    <i name="e_0_energy">   -148.17538479 </i>
   </energy>
  </scstep>
  <scstep>
   <time name="dav">   19.02   19.13</time>
   <time name="total">   19.24   19.35</time>
   <energy>
    <i name="e_fr_energy">   -148.16827972 </i>
    <i name="e_wo_entrp">   -148.16827972 </i>
    <i name="e_0_energy">   -148.16827972 </i>
   </energy>
  </scstep>
  <scstep>
   <time name="dav">   14.36   14.44</time>
   <time name="total">   14.57   14.66</time>
   <energy>
    <i name="e_fr_energy">   -148.16440146 </i>
    <i name="e_wo_entrp">   -148.16440146 </i>
    <i name="e_0_energy">   -148.16440146 </i>
   </energy>
  </scstep>
  <scstep>
   <time name="dav">   19.99   20.10</time>
   <time name="total">   20.21   20.33</time>
   <energy>
    <i name="e_fr_energy">   -148.16388463 </i>
    <i name="e_wo_entrp">   -148.16388463 </i>
    <i name="e_0_energy">   -148.16388463 </i>
   </energy>
  </scstep>
  <scstep>
   <time name="dav">   17.40   17.50</time>
   <time name="total">   17.62   17.72</time>
   <energy>
    <i name="e_fr_energy">   -148.16384456 </i>
    <i name="e_wo_entrp">   -148.16384456 </i>
    <i name="e_0_energy">   -148.16384456 </i>
   </energy>
  </scstep>
  <scstep>
   <time name="dav">   17.64   17.74</time>
   <time name="total">   17.67   17.77</time>
   <energy>
    <i name="alphaZ">    740.13647124 </i>
    <i name="ewald">  -9514.99175048 </i>
    <i name="hartreedc">  -4378.10180558 </i>
    <i name="XCdc">    707.79600021 </i>
    <i name="pawpsdc">   9942.00333485 </i>
    <i name="pawaedc"> -10354.88151402 </i>
    <i name="eentropy">     -0.00000000 </i>
    <i name="bandstr">  -2200.00671951 </i>
    <i name="atom">  14909.88213648 </i>
    <i name="e_fr_energy">   -148.16384681 </i>
    <i name="e_wo_entrp">   -148.16384681 </i>
    <i name="e_0_energy">   -148.16384681 </i>
   </energy>
  </scstep>
  <structure>
   <crystal>
    <varray name="basis" >
     <v>       5.00629233      -0.00063640       0.00200757 </v>
     <v>      -2.49773803       4.33855561       0.00208999 </v>
     <v>       0.81541997       1.41024996       9.56073538 </v>
    </varray>
    <i name="volume">    207.61578737 </i>
    <varray name="rec_basis" >
     <v>       0.19977688       0.11502939      -0.03400599 </v>
     <v>       0.00004294       0.23053256      -0.03400822 </v>
     <v>      -0.00004196      -0.00007455       0.10460904 </v>
    </varray>
   </crystal>
   <varray name="positions" >
    <v>       0.83261675       0.16738213      -0.00000464 </v>
    <v>       0.16736692       0.83263189      -0.00000452 </v>
    <v>       0.33263953       0.66738661       0.50000248 </v>
    <v>       0.66738856       0.33263831       0.50000246 </v>
    <v>       0.39415259       0.39405806       0.38610819 </v>
    <v>       0.89421564       0.89422310       0.88611083 </v>
    <v>       0.10578350       0.10579107       0.11388973 </v>
    <v>       0.60579517       0.60579697       0.61388395 </v>
    <v>       0.03732267       0.68045491       0.38776136 </v>
    <v>       0.53731234       0.18045340       0.88776589 </v>
    <v>       0.81955292       0.46269398       0.11223265 </v>
    <v>       0.31956306       0.96269730       0.61223011 </v>
    <v>       0.46266821       0.81948224       0.11230290 </v>
    <v>       0.96269410       0.31956538       0.61223087 </v>
    <v>       0.68045289       0.03732601       0.38776049 </v>
    <v>       0.18044380       0.53732269       0.88776392 </v>
    <v>       0.49989313       0.50001149       0.00002851 </v>
    <v>       0.00007432       0.00008721       0.49994267 </v>
    <v>       0.75000245       0.74999042       0.24999734 </v>
    <v>       0.25001795       0.25000375       0.75000031 </v>
    <v>       0.08903546       0.41097116       0.25000026 </v>
    <v>       0.58904749       0.91096907       0.74999655 </v>
    <v>       0.41098349       0.08902927       0.24999838 </v>
    <v>       0.91097608       0.58903658       0.74999828 </v>
   </varray>
  </structure>
  <varray name="forces" >
   <v>       0.07015266      -0.04264344       0.00607053 </v>
   <v>      -0.06851348       0.04098116       0.00621115 </v>
   <v>       0.07049643      -0.04331927      -0.00177112 </v>
   <v>      -0.07112334       0.03978161      -0.00077053 </v>
   <v>       0.04460334       0.09188579      -0.02037656 </v>
   <v>       0.04226366       0.08166357      -0.00131941 </v>
   <v>      -0.04575583      -0.08016355      -0.00730805 </v>
   <v>      -0.04627863      -0.07988284      -0.00504363 </v>
   <v>       0.02077542      -0.07124344      -0.02009967 </v>
   <v>       0.02138036      -0.07136685      -0.02069866 </v>
   <v>       0.07188991       0.01604345       0.02312477 </v>
   <v>       0.07197181       0.01555076       0.02534480 </v>
   <v>      -0.01917309       0.06879549       0.02141307 </v>
   <v>      -0.02069161       0.07011233       0.02535217 </v>
   <v>      -0.07088158      -0.01842040      -0.01980658 </v>
   <v>      -0.07121795      -0.01742050      -0.02112215 </v>
   <v>       0.00197132      -0.00015274       0.00123670 </v>
   <v>      -0.00028448      -0.00086597       0.00243027 </v>
   <v>      -0.00059770      -0.00032489       0.00154813 </v>
   <v>      -0.00031548       0.00014868       0.00089513 </v>
   <v>       0.00189637      -0.00082748       0.00135612 </v>
   <v>       0.00181664      -0.00086095       0.00087231 </v>
   <v>      -0.00211463       0.00115303       0.00150594 </v>
   <v>      -0.00227011       0.00137642       0.00095525 </v>
  </varray>
  <varray name="stress" >
   <v>      -3.09261251       0.58881743      -0.25558339 </v>
   <v>       0.58881768      -2.39988359      -0.44727443 </v>
   <v>      -0.25558264      -0.44727433       6.67094356 </v>
  </varray>
  <energy>
   <i name="e_fr_energy">   -148.16384681 </i>
   <i name="e_wo_entrp">   -148.16384681 </i>
   <i name="e_0_energy">   -148.16384681 </i>
  </energy>
  <time name="totalsc">  108.41  109.02</time>
 </calculation>
 <calculation>
  <scstep>
   <time name="dav">   11.13   11.19</time>
   <time name="total">   11.35   11.42</time>
   <energy>
    <i name="alphaZ">    739.73725012 </i>
    <i name="ewald">  -9510.98948602 </i>
    <i name="hartreedc">  -4379.36720560 </i>
    <i name="XCdc">    707.67681679 </i>
    <i name="pawpsdc">   9942.13549179 </i>
    <i name="pawaedc"> -10355.01085545 </i>
    <i name="eentropy">     -0.00000000 </i>
    <i name="bandstr">  -2202.22859190 </i>
    <i name="atom">  14909.88213648 </i>
    <i name="e_fr_energy">   -148.16444379 </i>
    <i name="e_wo_entrp">   -148.16444379 </i>
    <i name="e_0_energy">   -148.16444379 </i>
   </energy>
  </scstep>
  <scstep>
   <time name="dav">   19.11   19.21</time>
   <time name="total">   19.33   19.43</time>
   <energy>
    <i name="e_fr_energy">   -148.16417384 </i>
[...]
       <r>     6.2939     0.0000    88.0000 </r>
       <r>     6.5347     0.0000    88.0000 </r>
       <r>     6.7755     0.0000    88.0000 </r>
       <r>     7.0163     0.0000    88.0000 </r>
       <r>     7.2571     0.0000    88.0000 </r>
       <r>     7.4979     0.0000    88.0000 </r>
       <r>     7.7387     0.0000    88.0000 </r>
       <r>     7.9795     0.0000    88.0000 </r>
       <r>     8.2203     0.0000    88.0000 </r>
       <r>     8.4611     0.0000    88.0000 </r>
       <r>     8.7019     0.0000    88.0000 </r>
       <r>     8.9427     0.0015    88.0004 </r>
       <r>     9.1835     0.0378    88.0095 </r>
       <r>     9.4243     0.3027    88.0824 </r>
       <r>     9.6652     0.3651    88.1703 </r>
       <r>     9.9060     0.3040    88.2435 </r>
       <r>    10.1468     0.6454    88.3989 </r>
       <r>    10.3876     0.9293    88.6227 </r>
       <r>    10.6284     1.5452    88.9948 </r>
       <r>    10.8692     2.5702    89.6137 </r>
       <r>    11.1100     3.4158    90.4362 </r>
       <r>    11.3508     3.6155    91.3069 </r>
       <r>    11.5916     2.2734    91.8543 </r>
       <r>    11.8324     1.9383    92.3211 </r>
       <r>    12.0732     3.1424    93.0778 </r>
       <r>    12.3140     3.2379    93.8575 </r>
       <r>    12.5548     2.8680    94.5481 </r>
       <r>    12.7956     3.1874    95.3157 </r>
       <r>    13.0364     1.6265    95.7073 </r>
       <r>    13.2772     1.7265    96.1231 </r>
       <r>    13.5180     1.5977    96.5078 </r>
       <r>    13.7589     1.9831    96.9854 </r>
       <r>    13.9997     3.6594    97.8666 </r>
       <r>    14.2405     3.3666    98.6773 </r>
       <r>    14.4813     2.9640    99.3910 </r>
       <r>    14.7221     3.3531   100.1985 </r>
       <r>    14.9629     7.1737   101.9259 </r>
       <r>    15.2037     8.4445   103.9594 </r>
       <r>    15.4445     7.2293   105.7003 </r>
       <r>    15.6853     6.2803   107.2126 </r>
       <r>    15.9261     5.0240   108.4224 </r>
       <r>    16.1669     4.5983   109.5297 </r>
       <r>    16.4077     2.1147   110.0389 </r>
       <r>    16.6485     3.8461   110.9651 </r>
       <r>    16.8893     3.9484   111.9159 </r>
       <r>    17.1301     0.1262   111.9463 </r>
       <r>    17.3709     0.2230   112.0000 </r>
       <r>    17.6117     0.0000   112.0000 </r>
       <r>    17.8526     0.0000   112.0000 </r>
       <r>    18.0934     0.0000   112.0000 </r>
       <r>    18.3342     0.0000   112.0000 </r>
       <r>    18.5750     0.0000   112.0000 </r>
       <r>    18.8158     0.0000   112.0000 </r>
       <r>    19.0566     0.0000   112.0000 </r>
       <r>    19.2974     0.0000   112.0000 </r>
       <r>    19.5382     0.0000   112.0000 </r>
       <r>    19.7790     0.0000   112.0000 </r>
       <r>    20.0198     0.0000   112.0000 </r>
       <r>    20.2606     0.0000   112.0000 </r>
       <r>    20.5014     0.0000   112.0000 </r>
       <r>    20.7422     0.0000   112.0000 </r>
      </set>
      <set comment="spin 2">
       <r>   -51.4995     0.0000     0.0000 </r>
       <r>   -51.2587     0.0000     0.0000 </r>
       <r>   -51.0179     0.0000     0.0000 </r>
       <r>   -50.7771     0.0000     0.0000 </r>
       <r>   -50.5363     0.0000     0.0000 </r>
       <r>   -50.2955     0.0000     0.0000 </r>
       <r>   -50.0547     0.0000     0.0000 </r>
       <r>   -49.8139     0.0000     0.0000 </r>
       <r>   -49.5731     0.0000     0.0000 </r>
       <r>   -49.3323     0.0000     0.0000 </r>
       <r>   -49.0915     0.0000     0.0000 </r>
       <r>   -48.8507     0.0000     0.0000 </r>
       <r>   -48.6099     0.0000     0.0000 </r>
       <r>   -48.3691     0.0000     0.0000 </r>
       <r>   -48.1283     0.0000     0.0000 </r>
       <r>   -47.8874     0.0000     0.0000 </r>
       <r>   -47.6466     0.0000     0.0000 </r>
       <r>   -47.4058     0.0000     0.0000 </r>
       <r>   -47.1650     0.0000     0.0000 </r>
       <r>   -46.9242     0.0000     0.0000 </r>
       <r>   -46.6834     0.0000     0.0000 </r>
       <r>   -46.4426     0.0000     0.0000 </r>
       <r>   -46.2018     0.0000     0.0000 </r>
       <r>   -45.9610     0.0000     0.0000 </r>
       <r>   -45.7202     0.0000     0.0000 </r>
       <r>   -45.4794     0.0000     0.0000 </r>
       <r>   -45.2386     0.0000     0.0000 </r>
       <r>   -44.9978     0.0000     0.0000 </r>
       <r>   -44.7570     6.6989     1.6131 </r>
       <r>   -44.5162    43.1335    11.9999 </r>
       <r>   -44.2754     0.0003    12.0000 </r>
       <r>   -44.0346     0.0000    12.0000 </r>
       <r>   -43.7937     0.0000    12.0000 </r>
       <r>   -43.5529     0.0000    12.0000 </r>
       <r>   -43.3121     0.0000    12.0000 </r>
       <r>   -43.0713     0.0000    12.0000 </r>
       <r>   -42.8305     0.0000    12.0000 </r>
       <r>   -42.5897     0.0000    12.0000 </r>
       <r>   -42.3489     0.0000    12.0000 </r>
       <r>   -42.1081     0.0000    12.0000 </r>
       <r>   -41.8673     0.0000    12.0000 </r>
       <r>   -41.6265     0.0000    12.0000 </r>
       <r>   -41.3857     0.0000    12.0000 </r>
       <r>   -41.1449    22.9918    17.5366 </r>
       <r>   -40.9041     1.9254    18.0002 </r>
       <r>   -40.6633     8.2960    19.9979 </r>
       <r>   -40.4225     0.0086    20.0000 </r>
       <r>   -40.1817     0.0000    20.0000 </r>
       <r>   -39.9409     0.0000    20.0000 </r>
       <r>   -39.7000     0.0000    20.0000 </r>
       <r>   -39.4592     0.0000    20.0000 </r>
       <r>   -39.2184     0.0000    20.0000 </r>
       <r>   -38.9776     0.0000    20.0000 </r>
       <r>   -38.7368     0.0000    20.0000 </r>
       <r>   -38.4960     0.0000    20.0000 </r>
       <r>   -38.2552     0.0000    20.0000 </r>
       <r>   -38.0144     0.0000    20.0000 </r>
       <r>   -37.7736     0.0000    20.0000 </r>
       <r>   -37.5328     0.0000    20.0000 </r>
       <r>   -37.2920     0.0000    20.0000 </r>
       <r>   -37.0512     0.0000    20.0000 </r>
       <r>   -36.8104     0.0000    20.0000 </r>
       <r>   -36.5696     0.0000    20.0000 </r>
       <r>   -36.3288     0.0000    20.0000 </r>
       <r>   -36.0880     0.0000    20.0000 </r>
       <r>   -35.8472     0.0000    20.0000 </r>
       <r>   -35.6063     0.0000    20.0000 </r>
       <r>   -35.3655     0.0000    20.0000 </r>
       <r>   -35.1247     0.0000    20.0000 </r>
       <r>   -34.8839     0.0000    20.0000 </r>
       <r>   -34.6431     0.0000    20.0000 </r>
       <r>   -34.4023     0.0000    20.0000 </r>
       <r>   -34.1615     0.0000    20.0000 </r>
       <r>   -33.9207     0.0000    20.0000 </r>
       <r>   -33.6799     0.0000    20.0000 </r>
       <r>   -33.4391     0.0000    20.0000 </r>
       <r>   -33.1983     0.0000    20.0000 </r>
       <r>   -32.9575     0.0000    20.0000 </r>
       <r>   -32.7167     0.0000    20.0000 </r>
       <r>   -32.4759     0.0000    20.0000 </r>
       <r>   -32.2351     0.0000    20.0000 </r>
       <r>   -31.9943     0.0000    20.0000 </r>
       <r>   -31.7535     0.0000    20.0000 </r>
       <r>   -31.5126     0.0000    20.0000 </r>
       <r>   -31.2718     0.0000    20.0000 </r>
       <r>   -31.0310     0.0000    20.0000 </r>
       <r>   -30.7902     0.0000    20.0000 </r>
       <r>   -30.5494     0.0000    20.0000 </r>
       <r>   -30.3086     0.0000    20.0000 </r>
       <r>   -30.0678     0.0000    20.0000 </r>
       <r>   -29.8270     0.0000    20.0000 </r>
       <r>   -29.5862     0.0000    20.0000 </r>
       <r>   -29.3454     0.0000    20.0000 </r>
       <r>   -29.1046     0.0000    20.0000 </r>
       <r>   -28.8638     0.0000    20.0000 </r>
       <r>   -28.6230     0.0000    20.0000 </r>
       <r>   -28.3822     0.0000    20.0000 </r>
       <r>   -28.1414     0.0000    20.0000 </r>
       <r>   -27.9006     0.0000    20.0000 </r>
       <r>   -27.6598     0.0000    20.0000 </r>
       <r>   -27.4189     0.0000    20.0000 </r>
       <r>   -27.1781     0.0000    20.0000 </r>
       <r>   -26.9373     0.0000    20.0000 </r>
       <r>   -26.6965     0.0000    20.0000 </r>
       <r>   -26.4557     0.0000    20.0000 </r>
       <r>   -26.2149     0.0000    20.0000 </r>
       <r>   -25.9741     0.0000    20.0000 </r>
       <r>   -25.7333     0.0000    20.0000 </r>
       <r>   -25.4925     0.0000    20.0000 </r>
       <r>   -25.2517     0.0000    20.0000 </r>
       <r>   -25.0109     0.0000    20.0000 </r>
       <r>   -24.7701     0.0000    20.0000 </r>
       <r>   -24.5293     0.0000    20.0000 </r>
       <r>   -24.2885     0.0000    20.0000 </r>
       <r>   -24.0477     0.0000    20.0000 </r>
       <r>   -23.8069     0.0000    20.0000 </r>
       <r>   -23.5661     0.0000    20.0000 </r>
       <r>   -23.3252     0.0000    20.0000 </r>
       <r>   -23.0844     0.0000    20.0000 </r>
       <r>   -22.8436     0.0000    20.0000 </r>
       <r>   -22.6028     0.0000    20.0000 </r>
       <r>   -22.3620     0.0000    20.0000 </r>
       <r>   -22.1212     0.0000    20.0000 </r>
       <r>   -21.8804     0.0000    20.0000 </r>
       <r>   -21.6396     0.0000    20.0000 </r>
       <r>   -21.3988     0.0000    20.0000 </r>
       <r>   -21.1580     0.0000    20.0000 </r>
       <r>   -20.9172     0.0000    20.0000 </r>
       <r>   -20.6764     0.0000    20.0000 </r>
       <r>   -20.4356     0.0000    20.0000 </r>
       <r>   -20.1948     0.0000    20.0000 </r>
       <r>   -19.9540     0.0000    20.0000 </r>
       <r>   -19.7132     0.0000    20.0000 </r>
       <r>   -19.4724     0.0000    20.0000 </r>
       <r>   -19.2315     0.0000    20.0000 </r>
       <r>   -18.9907     0.0000    20.0000 </r>
       <r>   -18.7499     0.0000    20.0000 </r>
       <r>   -18.5091     0.0000    20.0000 </r>
       <r>   -18.2683     0.0000    20.0000 </r>
       <r>   -18.0275     0.0000    20.0000 </r>
       <r>   -17.7867     0.0000    20.0000 </r>
       <r>   -17.5459     0.0000    20.0000 </r>
       <r>   -17.3051     0.0000    20.0000 </r>
       <r>   -17.0643     0.0000    20.0000 </r>
       <r>   -16.8235     0.0000    20.0000 </r>
       <r>   -16.5827     0.0000    20.0000 </r>
       <r>   -16.3419     0.0000    20.0000 </r>
       <r>   -16.1011     0.0029    20.0007 </r>
       <r>   -15.8603     1.1991    20.2894 </r>
       <r>   -15.6195     3.0016    21.0122 </r>
       <r>   -15.3787     3.6597    21.8935 </r>
       <r>   -15.1378     1.4759    22.2489 </r>
       <r>   -14.8970     4.0911    23.2341 </r>
       <r>   -14.6562    16.4303    27.1906 </r>
       <r>   -14.4154    19.9656    31.9984 </r>
       <r>   -14.1746     0.0065    32.0000 </r>
       <r>   -13.9338     0.0000    32.0000 </r>
       <r>   -13.6930     0.0000    32.0000 </r>
       <r>   -13.4522     0.0000    32.0000 </r>
       <r>   -13.2114     0.0000    32.0000 </r>
       <r>   -12.9706     0.0000    32.0000 </r>
       <r>   -12.7298     0.0000    32.0000 </r>
       <r>   -12.4890     0.0000    32.0000 </r>
       <r>   -12.2482     0.0000    32.0000 </r>
       <r>   -12.0074     0.0000    32.0000 </r>
       <r>   -11.7666     0.0000    32.0000 </r>
       <r>   -11.5258     0.0000    32.0000 </r>
       <r>   -11.2850     0.0000    32.0000 </r>
       <r>   -11.0441     0.0000    32.0000 </r>
       <r>   -10.8033     0.0000    32.0000 </r>
       <r>   -10.5625     0.0000    32.0000 </r>
       <r>   -10.3217     0.0000    32.0000 </r>
       <r>   -10.0809     0.0000    32.0000 </r>
       <r>    -9.8401     0.0000    32.0000 </r>
       <r>    -9.5993     0.0000    32.0000 </r>
       <r>    -9.3585     0.0000    32.0000 </r>
       <r>    -9.1177     0.0000    32.0000 </r>
       <r>    -8.8769     0.0000    32.0000 </r>
       <r>    -8.6361     0.0000    32.0000 </r>
       <r>    -8.3953     0.0000    32.0000 </r>
       <r>    -8.1545     0.0000    32.0000 </r>
       <r>    -7.9137     0.0000    32.0000 </r>
       <r>    -7.6729     0.0000    32.0000 </r>
       <r>    -7.4321     0.0000    32.0000 </r>
       <r>    -7.1913     0.0000    32.0000 </r>
       <r>    -6.9504     0.0000    32.0000 </r>
       <r>    -6.7096     0.0000    32.0000 </r>
       <r>    -6.4688     0.0000    32.0000 </r>
       <r>    -6.2280     0.0000    32.0000 </r>
       <r>    -5.9872     0.0000    32.0000 </r>
       <r>    -5.7464     0.0000    32.0000 </r>
       <r>    -5.5056     0.0000    32.0000 </r>
       <r>    -5.2648     0.0000    32.0000 </r>
       <r>    -5.0240     0.0000    32.0000 </r>
       <r>    -4.7832     0.0000    32.0000 </r>
       <r>    -4.5424     0.0000    32.0000 </r>
       <r>    -4.3016     0.0000    32.0000 </r>
       <r>    -4.0608     0.0000    32.0000 </r>
       <r>    -3.8200     0.0000    32.0000 </r>
       <r>    -3.5792     0.0000    32.0000 </r>
       <r>    -3.3384     0.0000    32.0000 </r>
       <r>    -3.0976     0.0000    32.0000 </r>
       <r>    -2.8567     0.0945    32.0228 </r>
       <r>    -2.6159     4.8181    33.1830 </r>
       <r>    -2.3751     6.6200    34.7771 </r>
       <r>    -2.1343    12.3661    37.7549 </r>
       <r>    -1.8935    11.9863    40.6413 </r>
       <r>    -1.6527     7.2771    42.3937 </r>
       <r>    -1.4119     9.1857    44.6056 </r>
       <r>    -1.1711    10.0850    47.0342 </r>
       <r>    -0.9303     7.1697    48.7607 </r>
       <r>    -0.6895     6.0301    50.2128 </r>
       <r>    -0.4487     4.7999    51.3686 </r>
       <r>    -0.2079     6.8106    53.0086 </r>
       <r>     0.0329     7.3667    54.7826 </r>
       <r>     0.2737    10.0908    57.2125 </r>
       <r>     0.5145     9.9511    59.6087 </r>
       <r>     0.7553     7.0815    61.3140 </r>
       <r>     0.9961    11.1088    63.9891 </r>
       <r>     1.2370    10.4049    66.4946 </r>
       <r>     1.4778     6.1164    67.9675 </r>
       <r>     1.7186     0.1350    68.0000 </r>
       <r>     1.9594     0.0000    68.0000 </r>
       <r>     2.2002     0.0000    68.0000 </r>
       <r>     2.4410     0.0000    68.0000 </r>
       <r>     2.6818     0.0000    68.0000 </r>
       <r>     2.9226     0.0000    68.0000 </r>
       <r>     3.1634     0.0000    68.0000 </r>
       <r>     3.4042     0.0000    68.0000 </r>
       <r>     3.6450     0.0000    68.0000 </r>
       <r>     3.8858     0.0000    68.0000 </r>
       <r>     4.1266     0.0000    68.0000 </r>
       <r>     4.3674     0.0000    68.0000 </r>
       <r>     4.6082     0.0000    68.0000 </r>
       <r>     4.8490     0.0015    68.0004 </r>
       <r>     5.0898     3.0165    68.7268 </r>
       <r>     5.3306    12.1325    71.6483 </r>
       <r>     5.5715    16.0601    75.5157 </r>
       <r>     5.8123    16.0812    79.3881 </r>
       <r>     6.0531     2.9301    80.0937 </r>
       <r>     6.2939     7.2066    81.8291 </r>
       <r>     6.5347    17.0413    85.9328 </r>
       <r>     6.7755     8.5619    87.9945 </r>
       <r>     7.0163     0.0227    88.0000 </r>
       <r>     7.2571     0.0000    88.0000 </r>
       <r>     7.4979     0.0000    88.0000 </r>
       <r>     7.7387     0.0000    88.0000 </r>
       <r>     7.9795     0.0000    88.0000 </r>
       <r>     8.2203     0.0000    88.0000 </r>
       <r>     8.4611     0.0000    88.0000 </r>
       <r>     8.7019     0.0000    88.0000 </r>
       <r>     8.9427     0.0000    88.0000 </r>
       <r>     9.1835     0.0062    88.0015 </r>
       <r>     9.4243     0.0406    88.0113 </r>
       <r>     9.6652     0.3102    88.0860 </r>
       <r>     9.9060     0.4334    88.1904 </r>
       <r>    10.1468     0.3758    88.2809 </r>
       <r>    10.3876     0.8606    88.4881 </r>
       <r>    10.6284     0.9282    88.7116 </r>
       <r>    10.8692     2.5367    89.3225 </r>
       <r>    11.1100     2.7355    89.9812 </r>
       <r>    11.3508     3.7587    90.8863 </r>
       <r>    11.5916     2.9436    91.5951 </r>
       <r>    11.8324     2.1256    92.1070 </r>
       <r>    12.0732     2.7522    92.7697 </r>
       <r>    12.3140     2.8584    93.4581 </r>
       <r>    12.5548     2.8556    94.1457 </r>
       <r>    12.7956     3.3309    94.9478 </r>
       <r>    13.0364     2.5285    95.5567 </r>
       <r>    13.2772     1.1189    95.8261 </r>
       <r>    13.5180     1.9063    96.2852 </r>
       <r>    13.7589     1.3531    96.6110 </r>
       <r>    13.9997     2.2419    97.1509 </r>
       <r>    14.2405     4.3231    98.1919 </r>
       <r>    14.4813     2.6295    98.8251 </r>
       <r>    14.7221     3.3275    99.6264 </r>
       <r>    14.9629     5.0903   100.8522 </r>
       <r>    15.2037     8.2697   102.8436 </r>
       <r>    15.4445     4.0729   103.8244 </r>
       <r>    15.6853     6.7738   105.4555 </r>
       <r>    15.9261     4.5758   106.5574 </r>
       <r>    16.1669     5.2467   107.8208 </r>
       <r>    16.4077     4.9768   109.0193 </r>
       <r>    16.6485     3.2307   109.7972 </r>
       <r>    16.8893     1.1259   110.0684 </r>
       <r>    17.1301     2.4569   110.6600 </r>
       <r>    17.3709     4.7906   111.8136 </r>
       <r>    17.6117     0.7741   112.0000 </r>
       <r>    17.8526     0.0000   112.0000 </r>
       <r>    18.0934     0.0000   112.0000 </r>
       <r>    18.3342     0.0000   112.0000 </r>
       <r>    18.5750     0.0000   112.0000 </r>
       <r>    18.8158     0.0000   112.0000 </r>
       <r>    19.0566     0.0000   112.0000 </r>
       <r>    19.2974     0.0000   112.0000 </r>
       <r>    19.5382     0.0000   112.0000 </r>
       <r>    19.7790     0.0000   112.0000 </r>
       <r>    20.0198     0.0000   112.0000 </r>
       <r>    20.2606     0.0000   112.0000 </r>
       <r>    20.5014     0.0000   112.0000 </r>
       <r>    20.7422     0.0000   112.0000 </r>
      </set>
     </set>
    </array>
   </total>
  </dos>
 </calculation>
 <structure name="finalpos" >
  <crystal>
   <varray name="basis" >
    <v>       5.00113724       0.00058052       0.00114092 </v>
    <v>      -2.49411190       4.33482746       0.00112254 </v>
    <v>       0.81325108       1.40631905       9.59438750 </v>
   </varray>
   <i name="volume">    207.99534280 </i>
   <varray name="rec_basis" >
    <v>       0.19994888       0.11505252      -0.03381239 </v>
    <v>      -0.00001906       0.23068748      -0.03381192 </v>
    <v>      -0.00002377      -0.00004067       0.10423558 </v>
   </varray>
  </crystal>
  <varray name="positions" >
   <v>       0.83289156       0.16711560      -0.00000688 </v>
   <v>       0.16709206       0.83289290      -0.00000765 </v>
   <v>       0.33289613       0.66709913       0.50001334 </v>
   <v>       0.66710181       0.33289415       0.50001249 </v>
   <v>       0.39526861       0.39526877       0.38603203 </v>
   <v>       0.89527002       0.89527474       0.88604535 </v>
   <v>       0.10472743       0.10473097       0.11396677 </v>
   <v>       0.60472852       0.60472748       0.61395627 </v>
   <v>       0.03708382       0.67973381       0.38780162 </v>
   <v>       0.53707342       0.17971886       0.88781631 </v>
   <v>       0.82026531       0.46291542       0.11220228 </v>
   <v>       0.32028027       0.96292308       0.61218542 </v>
   <v>       0.46291545       0.82026615       0.11219833 </v>
   <v>       0.96292554       0.32027951       0.61218555 </v>
   <v>       0.67973264       0.03707996       0.38780183 </v>
   <v>       0.17971136       0.53707705       0.88781877 </v>
   <v>       0.49996007       0.49999618       0.00001421 </v>
   <v>       0.00003287       0.00002968       0.49997212 </v>
   <v>       0.74999928       0.74998421       0.24999815 </v>
   <v>       0.25000991       0.24999589       0.75000017 </v>
   <v>       0.08894310       0.41105582       0.25000080 </v>
   <v>       0.58895913       0.91105624       0.74999568 </v>
   <v>       0.41106881       0.08893931       0.24999845 </v>
   <v>       0.91106189       0.58894812       0.74999759 </v>
  </varray>
 </structure>
</modeling>
