OPT                                     
           1
     4.898159    0.000000    0.000000
    -2.443249    4.245293    0.000000
     0.794218    1.373448    9.400127
   Mn   O    Li
     4    12     8
Direct configuration=     1
   0.83289082  0.16710566  0.99999862
   0.16711068  0.83288587  0.99999869
   0.33289456  0.66710373  0.50000608
   0.66711444  0.33288535  0.50000568
   0.39356550  0.39355426  0.38617247
   0.89359043  0.89358438  0.88616658
   0.10642654  0.10642028  0.11383436
   0.60641032  0.60639838  0.61383552
   0.03661870  0.68039202  0.38769659
   0.53661465  0.18038049  0.88769418
   0.81961335  0.46338152  0.11231063
   0.31961690  0.96338348  0.61230338
   0.46338977  0.81958816  0.11230453
   0.96339604  0.31959725  0.61230064
   0.68041182  0.03660614  0.38769911
   0.18040623  0.53660667  0.88770041
   0.49979636  0.50002178  0.00004463
   0.00010816  0.00014389  0.49991836
   0.74999264  0.74998337  0.25000054
   0.25001647  0.25000442  0.75000231
   0.08874518  0.41125105  0.25000230
   0.58874551  0.91125190  0.75000060
   0.41126140  0.08873559  0.25000327
   0.91126254  0.58873737  0.74999952
OPT                                     
           1
     4.953035    0.000044    0.000054
    -2.470583    4.292876    0.000054
     0.803231    1.389035    9.494885
   Mn   O    Li
     4    12     8
Direct configuration=     2
   0.83296103  0.16703031  0.00000004
   0.16703097  0.83296019  0.00000013
   0.33297268  0.66703113  0.50000454
   0.66704315  0.33296113  0.50000425
   0.39278319  0.39277378  0.38539144
   0.89279247  0.89278677  0.88538973
   0.10721539  0.10720960  0.11461256
   0.60721118  0.60720142  0.61461235
   0.03698036  0.68203747  0.38677487
   0.53697688  0.18203227  0.88677430
   0.81796312  0.46301938  0.11322894
   0.31796644  0.96302023  0.61322605
   0.46302713  0.81794959  0.11322716
   0.96303146  0.31795307  0.61322489
   0.68205072  0.03696902  0.38677600
   0.18204610  0.53696931  0.88677618
   0.49981994  0.50001644  0.00004149
   0.00009855  0.00012673  0.49992513
   0.74999385  0.74998209  0.25000067
   0.25001586  0.25000144  0.75000255
   0.08890508  0.41108987  0.25000271
   0.58890857  0.91109001  0.75000022
   0.41110304  0.08889429  0.25000289
   0.91110182  0.58889746  0.74999993
OPT                                     
           1
     4.978571    0.000064    0.000079
    -2.483303    4.315018    0.000079
     0.807426    1.396288    9.538980
   Mn   O    Li
     4    12     8
Direct configuration=     3
   0.83299334  0.16699563  0.00000069
   0.16699429  0.83299440  0.00000080
   0.33300863  0.66699773  0.50000382
   0.66701035  0.33299600  0.50000359
   0.39242333  0.39241477  0.38503162
   0.89242541  0.89241987  0.88503183
   0.10757827  0.10757269  0.11497107
   0.60757958  0.60757083  0.61497023
   0.03714696  0.68279486  0.38635022
   0.53714374  0.18279257  0.88635051
   0.81720353  0.46285255  0.11365202
   0.31720675  0.96285291  0.61365114
   0.46286007  0.81719536  0.11365222
   0.96286352  0.31719626  0.61365069
   0.68280509  0.03713618  0.38635071
   0.18280093  0.53713636  0.88635038
   0.49983079  0.50001399  0.00004004
   0.00009413  0.00011883  0.49992824
   0.74999440  0.74998150  0.25000073
   0.25001558  0.25000007  0.75000267
   0.08897867  0.41101569  0.25000290
   0.58898361  0.91101551  0.75000005
   0.41103017  0.08896732  0.25000272
   0.91102786  0.58897113  0.75000012
OPT                                     
           1
     4.979311    0.000065    0.000080
    -2.483672    4.315660    0.000079
     0.807547    1.396498    9.540258
   Mn   O    Li
     4    12     8
Direct configuration=     4
   0.83299428  0.16699463  0.00000071
   0.16699323  0.83299538  0.00000082
   0.33300967  0.66699676  0.50000380
   0.66700940  0.33299701  0.50000357
   0.39241296  0.39240442  0.38502124
   0.89241483  0.89240929  0.88502151
   0.10758873  0.10758315  0.11498141
   0.60759020  0.60758147  0.61498056
   0.03715177  0.68281669  0.38633797
   0.53714855  0.18281449  0.88633828
   0.81718163  0.46284774  0.11366422
   0.31718485  0.96284808  0.61366340
   0.46285526  0.81717362  0.11366448
   0.96285868  0.31717445  0.61366297
   0.68282684  0.03714100  0.38633844
   0.18282269  0.53714117  0.88633810
   0.49983111  0.50001392  0.00004000
   0.00009400  0.00011860  0.49992833
   0.74999442  0.74998148  0.25000073
   0.25001557  0.25000003  0.75000267
   0.08898079  0.41101355  0.25000291
   0.58898578  0.91101336  0.75000005
   0.41102807  0.08896943  0.25000271
   0.91102573  0.58897326  0.75000013
OPT                                     
           1
     4.987540   -0.000149    0.000668
    -2.487962    4.322643    0.000693
     0.809948    1.400692    9.546503
   Mn   O    Li
     4    12     8
Direct configuration=     5
   0.83287913  0.16711282 -0.00000092
   0.16710721  0.83288452 -0.00000081
   0.33289678  0.66711567  0.50000340
   0.66712504  0.33288761  0.50000323
   0.39294356  0.39290878  0.38535275
   0.89296408  0.89296251  0.88535374
   0.10703813  0.10703656  0.11464846
   0.60704271  0.60703720  0.61464610
   0.03720391  0.68209637  0.38677208
   0.53719852  0.18209438  0.88677368
   0.81790486  0.46280083  0.11322761
   0.31791018  0.96280208  0.61322627
   0.46279819  0.81787773  0.11324922
   0.96280846  0.31790366  0.61322620
   0.68210281  0.03719744  0.38677215
   0.18209714  0.53719655  0.88677295
   0.49985002  0.50001318  0.00003650
   0.00008800  0.00010903  0.49993271
   0.74999687  0.74998421  0.24999970
   0.25001629  0.25000117  0.75000195
   0.08899746  0.41100063  0.25000210
   0.58900460  0.91099985  0.74999898
   0.41101447  0.08898768  0.25000139
   0.91101058  0.58899257  0.74999957
OPT                                     
           1
     5.012226   -0.000791    0.002432
    -2.500831    4.343591    0.002532
     0.817151    1.413274    9.565239
   Mn   O    Li
     4    12     8
Direct configuration=     6
   0.83253428  0.16746679 -0.00000581
   0.16744856  0.83255248 -0.00000569
   0.33255868  0.66747178  0.50000219
   0.66747139  0.33255995  0.50000222
   0.39453214  0.39441883  0.38634643
   0.89460857  0.89461887  0.88634957
   0.10538962  0.10540005  0.11365047
   0.60540351  0.60540761  0.61364361
   0.03735893  0.67993786  0.38807370
   0.53734704  0.17993649  0.88807915
   0.82007202  0.46266146  0.11191853
   0.32008368  0.96266544  0.61191561
   0.46262838  0.81998763  0.11200413
   0.96265922  0.32008881  0.61191662
   0.67993321  0.03736537  0.38807253
   0.17992304  0.53736127  0.88807679
   0.49990669  0.50001097  0.00002599
   0.00007001  0.00008033  0.49994582
   0.75000421  0.74999238  0.24999659
   0.25001847  0.25000457  0.74999979
   0.08904740  0.41096191  0.24999968
   0.58906097  0.91095939  0.74999578
   0.41097376  0.08904235  0.24999743
   0.91096523  0.58905041  0.74999788
OPT                                     
           1
     5.006292   -0.000636    0.002008
    -2.497738    4.338556    0.002090
     0.815420    1.410250    9.560735
   Mn   O    Li
     4    12     8
Direct configuration=     7
   0.83261675  0.16738213 -0.00000464
   0.16736692  0.83263189 -0.00000452
   0.33263953  0.66738661  0.50000248
   0.66738856  0.33263831  0.50000246
   0.39415259  0.39405806  0.38610819
   0.89421564  0.89422310  0.88611083
   0.10578350  0.10579107  0.11388973
   0.60579517  0.60579697  0.61388395
   0.03732267  0.68045491  0.38776136
   0.53731234  0.18045340  0.88776589
   0.81955292  0.46269398  0.11223265
   0.31956306  0.96269730  0.61223011
   0.46266821  0.81948224  0.11230290
   0.96269410  0.31956538  0.61223087
   0.68045289  0.03732601  0.38776049
   0.18044380  0.53732269  0.88776392
   0.49989313  0.50001149  0.00002851
   0.00007432  0.00008721  0.49994267
   0.75000245  0.74999042  0.24999734
   0.25001795  0.25000375  0.75000031
   0.08903546  0.41097116  0.25000026
   0.58904749  0.91096907  0.74999655
   0.41098349  0.08902927  0.24999838
   0.91097608  0.58903658  0.74999828
OPT                                     
           1
     5.007448   -0.000666    0.002090
    -2.498341    4.339537    0.002176
     0.815757    1.410839    9.561613
   Mn   O    Li
     4    12     8
Direct configuration=     8
   0.83260067  0.16739864 -0.00000487
   0.16738285  0.83261640 -0.00000475
   0.33262376  0.66740322  0.50000243
   0.66740471  0.33262302  0.50000241
   0.39422664  0.39412845  0.38615464
   0.89429230  0.89430031  0.88615737
   0.10570666  0.10571478  0.11384309
   0.60571875  0.60572100  0.61383710
   0.03732978  0.68035409  0.38782224
   0.53731914  0.18035261  0.88782694
   0.81965414  0.46268760  0.11217143
   0.31966457  0.96269105  0.61216882
   0.46266041  0.81958079  0.11224467
   0.96268725  0.31966744  0.61216962
   0.68035156  0.03733373  0.38782131
   0.18034225  0.53733025  0.88782490
   0.49989577  0.50001139  0.00002802
   0.00007348  0.00008587  0.49994329
   0.75000279  0.74999081  0.24999719
   0.25001805  0.25000391  0.75000021
   0.08903779  0.41096936  0.25000015
   0.58905012  0.91096718  0.74999640
   0.41098159  0.08903182  0.24999819
   0.91097396  0.58903928  0.74999821
OPT                                     
           1
     5.006768   -0.000232    0.001969
    -2.497625    4.339201    0.002044
     0.815532    1.410438    9.574913
   Mn   O    Li
     4    12     8
Direct configuration=     9
   0.83287914  0.16708220  0.00001196
   0.16709590  0.83290312  0.00001280
   0.33291193  0.66709089  0.49999330
   0.66710507  0.33290880  0.49999626
   0.39489607  0.39487898  0.38621055
   0.89491750  0.89492096  0.88620414
   0.10507797  0.10507950  0.11379289
   0.60508571  0.60508568  0.61379438
   0.03722932  0.67979744  0.38778052
   0.53722258  0.17979580  0.88778332
   0.82019964  0.46277307  0.11221627
   0.32020669  0.96277057  0.61222113
   0.46276132  0.82018938  0.11222890
   0.96278044  0.32020661  0.61222201
   0.67980205  0.03722378  0.38778056
   0.17979558  0.53722906  0.88777976
   0.49991059  0.50000658  0.00002804
   0.00006536  0.00007241  0.49994877
   0.74999730  0.74998468  0.24999899
   0.25001656  0.25000177  0.74999985
   0.08904840  0.41095828  0.25000118
   0.58906091  0.91095628  0.74999578
   0.41097023  0.08903867  0.24999968
   0.91096277  0.58904853  0.74999794
OPT                                     
           1
     5.006375    0.000019    0.001899
    -2.497212    4.339007    0.001969
     0.815401    1.410206    9.582585
   Mn   O    Li
     4    12     8
Direct configuration=    10
   0.83303981  0.16689965  0.00002166
   0.16693036  0.83306854  0.00002291
   0.33307819  0.66691069  0.49998805
   0.66693219  0.33307367  0.49999272
   0.39528221  0.39531191  0.38624277
   0.89527813  0.89527897  0.88623109
   0.10471532  0.10471305  0.11376396
   0.60472055  0.60471920  0.61376977
   0.03717138  0.67947632  0.38775649
   0.53716689  0.17947459  0.88775819
   0.82051434  0.46282235  0.11224210
   0.32051943  0.96281642  0.61225127
   0.46281950  0.82054044  0.11221982
   0.96283417  0.32051765  0.61225220
   0.67948504  0.03716037  0.38775709
   0.17948021  0.53717070  0.88775374
   0.49991914  0.50000380  0.00002806
   0.00006068  0.00006465  0.49995193
   0.74999414  0.74998115  0.25000003
   0.25001570  0.25000053  0.74999964
   0.08905453  0.41095189  0.25000177
   0.58906713  0.91095000  0.74999542
   0.41096367  0.08904262  0.25000054
   0.91095632  0.58905386  0.74999779
OPT                                     
           1
     5.006521   -0.000075    0.001925
    -2.497365    4.339079    0.001997
     0.815450    1.410292    9.579735
   Mn   O    Li
     4    12     8
Direct configuration=    11
   0.83298012  0.16696747  0.00001806
   0.16699186  0.83300708  0.00001915
   0.33301642  0.66697764  0.49999000
   0.66699642  0.33301241  0.49999403
   0.39513876  0.39515107  0.38623081
   0.89514416  0.89514597  0.88622109
   0.10485004  0.10484919  0.11377470
   0.60485621  0.60485535  0.61377891
   0.03719290  0.67959562  0.38776541
   0.53718757  0.17959392  0.88776752
   0.82039742  0.46280404  0.11223251
   0.32040324  0.96279939  0.61224008
   0.46279789  0.82041002  0.11222319
   0.96281421  0.32040209  0.61224099
   0.67960282  0.03718392  0.38776580
   0.17959737  0.53719238  0.88776340
   0.49991596  0.50000483  0.00002805
   0.00006242  0.00006753  0.49995076
   0.74999531  0.74998247  0.24999964
   0.25001602  0.25000099  0.74999972
   0.08905225  0.41095426  0.25000155
   0.58906482  0.91095233  0.74999555
   0.41096611  0.08904115  0.25000022
   0.91095872  0.58905188  0.74999785
OPT                                     
           1
     5.006564   -0.000102    0.001933
    -2.497410    4.339100    0.002005
     0.815464    1.410318    9.578897
   Mn   O    Li
     4    12     8
Direct configuration=    12
   0.83296257  0.16698740  0.00001700
   0.16700994  0.83298901  0.00001805
   0.33299826  0.66699732  0.49999057
   0.66701530  0.33299441  0.49999442
   0.39509660  0.39510380  0.38622729
   0.89510478  0.89510688  0.88621815
   0.10488964  0.10488920  0.11377786
   0.60489608  0.60489536  0.61378159
   0.03719923  0.67963069  0.38776803
   0.53719365  0.17962900  0.88777026
   0.82036306  0.46279866  0.11222969
   0.32036909  0.96279439  0.61223679
   0.46279154  0.82037169  0.11222418
   0.96280834  0.32036813  0.61223770
   0.67963743  0.03719084  0.38776836
   0.17963181  0.53719875  0.88776624
   0.49991503  0.50000514  0.00002805
   0.00006293  0.00006838  0.49995041
   0.74999566  0.74998285  0.24999953
   0.25001611  0.25000112  0.74999974
   0.08905158  0.41095496  0.25000149
   0.58906414  0.91095302  0.74999559
   0.41096682  0.08904072  0.25000013
   0.91095942  0.58905130  0.74999787
OPT                                     
           1
     5.003885   -0.000046    0.001616
    -2.496026    4.336841    0.001648
     0.814435    1.408460    9.585364
   Mn   O    Li
     4    12     8
Direct configuration=    13
   0.83289646  0.16709746 -0.00000518
   0.16708829  0.83289992 -0.00000480
   0.33290255  0.66709323  0.50000591
   0.66710050  0.33289535  0.50000776
   0.39522921  0.39523502  0.38612435
   0.89522654  0.89522719  0.88613457
   0.10476972  0.10477158  0.11387985
   0.60477418  0.60476971  0.61386829
   0.03715381  0.67965341  0.38773311
   0.53714633  0.17964514  0.88774346
   0.82033786  0.46284252  0.11227005
   0.32035618  0.96284593  0.61225840
   0.46284204  0.82034303  0.11226496
   0.96284957  0.32034940  0.61225975
   0.67965681  0.03715042  0.38773397
   0.17964054  0.53714582  0.88774509
   0.49992830  0.50000234  0.00002285
   0.00005372  0.00005607  0.49995769
   0.74999622  0.74998268  0.24999983
   0.25001280  0.24999842  0.75000131
   0.08901926  0.41098306  0.25000155
   0.58903343  0.91098237  0.74999660
   0.41099535  0.08901095  0.25000042
   0.91098934  0.58902198  0.74999921
OPT                                     
           1
     5.001076    0.000012    0.001284
    -2.494574    4.334472    0.001273
     0.813356    1.406511    9.592148
   Mn   O    Li
     4    12     8
Direct configuration=    14
   0.83282705  0.16721296 -0.00002842
   0.16717051  0.83280639 -0.00002875
   0.33280209  0.66719392  0.50002199
   0.66718994  0.33279139  0.50002174
   0.39536832  0.39537267  0.38601643
   0.89535429  0.89535341  0.88604695
   0.10464393  0.10464820  0.11398676
   0.60464630  0.60463789  0.61395916
   0.03710612  0.67967724  0.38769650
   0.53709665  0.17966207  0.88771536
   0.82031144  0.46288858  0.11231235
   0.32034264  0.96290004  0.61228105
   0.46289507  0.82031297  0.11230772
   0.96289285  0.32032975  0.61228287
   0.67967713  0.03710797  0.38769792
   0.17964969  0.53709025  0.88772291
   0.49994222  0.49999939  0.00001741
   0.00004405  0.00004316  0.49996533
   0.74999682  0.74998250  0.25000014
   0.25000934  0.24999559  0.75000295
   0.08898533  0.41101256  0.25000162
   0.58900119  0.91101317  0.74999765
   0.41102529  0.08897972  0.25000072
   0.91102073  0.58899120  0.75000061
OPT                                     
           1
     5.001789   -0.000003    0.001368
    -2.494943    4.335073    0.001368
     0.813630    1.407006    9.590426
   Mn   O    Li
     4    12     8
Direct configuration=    15
   0.83284469  0.16718363 -0.00002252
   0.16714963  0.83283015 -0.00002267
   0.33282761  0.66716834  0.50001791
   0.66716721  0.33281780  0.50001819
   0.39533300  0.39533773  0.38604381
   0.89532185  0.89532136  0.88606918
   0.10467587  0.10467952  0.11395964
   0.60467877  0.60467136  0.61393611
   0.03711824  0.67967119  0.38770579
   0.53710927  0.17965778  0.88772249
   0.82031815  0.46287687  0.11230162
   0.32034608  0.96288629  0.61227530
   0.46288159  0.82032060  0.11229688
   0.96288185  0.32033474  0.61227700
   0.67967198  0.03711876  0.38770707
   0.17964737  0.53710437  0.88772854
   0.49993868  0.50000014  0.00001879
   0.00004651  0.00004644  0.49996339
   0.74999667  0.74998254  0.25000006
   0.25001022  0.24999631  0.75000254
   0.08899395  0.41100507  0.25000160
   0.58900938  0.91100535  0.74999738
   0.41101769  0.08898765  0.25000064
   0.91101276  0.58899902  0.75000025
OPT                                     
           1
     5.002837   -0.000025    0.001492
    -2.495484    4.335957    0.001508
     0.814032    1.407733    9.587895
   Mn   O    Li
     4    12     8
Direct configuration=    16
   0.83287060  0.16714052 -0.00001386
   0.16711895  0.83286506 -0.00001374
   0.33286510  0.66713076  0.50001192
   0.66713383  0.33285659  0.50001298
   0.39528111  0.39528638  0.38608404
   0.89527420  0.89527428  0.88610184
   0.10472279  0.10472555  0.11391978
   0.60472648  0.60472053  0.61390223
   0.03713605  0.67966231  0.38771944
   0.53712782  0.17965146  0.88773297
   0.82032800  0.46285968  0.11228584
   0.32035113  0.96286609  0.61226686
   0.46286179  0.82033181  0.11228093
   0.96286569  0.32034207  0.61226838
   0.67966440  0.03713461  0.38772051
   0.17964396  0.53712511  0.88773681
   0.49993349  0.50000124  0.00002082
   0.00005011  0.00005126  0.49996054
   0.74999645  0.74998261  0.24999995
   0.25001151  0.24999736  0.75000192
   0.08900661  0.41099406  0.25000158
   0.58902141  0.91099385  0.74999699
   0.41100651  0.08899931  0.25000053
   0.91100104  0.58901051  0.74999973
OPT                                     
           1
     5.002211   -0.000012    0.001418
    -2.495161    4.335429    0.001424
     0.813792    1.407298    9.589407
   Mn   O    Li
     4    12     8
Direct configuration=    17
   0.83285512  0.16716627 -0.00001904
   0.16713728  0.83284421 -0.00001908
   0.33284270  0.66715321  0.50001550
   0.66715377  0.33283342  0.50001610
   0.39531211  0.39531706  0.38606000
   0.89530267  0.89530241  0.88608232
   0.10469476  0.10469805  0.11394360
   0.60469797  0.60469115  0.61392248
   0.03712541  0.67966762  0.38771128
   0.53711674  0.17965524  0.88772671
   0.82032211  0.46286995  0.11229527
   0.32034811  0.96287816  0.61227191
   0.46287362  0.82032511  0.11229046
   0.96287534  0.32033769  0.61227353
   0.67966893  0.03712515  0.38771248
   0.17964600  0.53711272  0.88773186
   0.49993659  0.50000059  0.00001961
   0.00004796  0.00004838  0.49996225
   0.74999658  0.74998257  0.25000001
   0.25001074  0.24999673  0.75000229
   0.08899905  0.41100064  0.25000159
   0.58901422  0.91100072  0.74999722
   0.41101319  0.08899235  0.25000060
   0.91100804  0.58900365  0.75000004
OPT                                     
           1
     5.001992   -0.000007    0.001392
    -2.495047    4.335244    0.001395
     0.813707    1.407146    9.589937
   Mn   O    Li
     4    12     8
Direct configuration=    18
   0.83284969  0.16717530 -0.00002085
   0.16714370  0.83283690 -0.00002095
   0.33283485  0.66716108  0.50001676
   0.66716076  0.33282529  0.50001719
   0.39532298  0.39532781  0.38605157
   0.89531265  0.89531227  0.88607548
   0.10468493  0.10468841  0.11395195
   0.60468798  0.60468085  0.61392958
   0.03712168  0.67966948  0.38770842
   0.53711286  0.17965656  0.88772451
   0.82032005  0.46287355  0.11229857
   0.32034705  0.96288239  0.61227368
   0.46287777  0.82032276  0.11229380
   0.96287873  0.32033616  0.61227534
   0.67967051  0.03712183  0.38770966
   0.17964671  0.53710838  0.88773013
   0.49993768  0.50000036  0.00001918
   0.00004720  0.00004737  0.49996284
   0.74999663  0.74998256  0.25000004
   0.25001047  0.24999651  0.75000242
   0.08899640  0.41100294  0.25000160
   0.58901170  0.91100312  0.74999731
   0.41101553  0.08898990  0.25000062
   0.91101049  0.58900124  0.75000015
OPT                                     
           1
     5.001916   -0.000006    0.001383
    -2.495008    4.335180    0.001385
     0.813678    1.407093    9.590120
   Mn   O    Li
     4    12     8
Direct configuration=    19
   0.83284782  0.16717841 -0.00002148
   0.16714592  0.83283438 -0.00002159
   0.33283214  0.66716379  0.50001719
   0.66716317  0.33282249  0.50001756
   0.39532673  0.39533152  0.38604867
   0.89531609  0.89531567  0.88607312
   0.10468154  0.10468508  0.11395483
   0.60468454  0.60467730  0.61393202
   0.03712040  0.67967012  0.38770744
   0.53711152  0.17965701  0.88772376
   0.82031934  0.46287479  0.11229971
   0.32034669  0.96288385  0.61227429
   0.46287920  0.82032196  0.11229495
   0.96287989  0.32033563  0.61227596
   0.67967106  0.03712068  0.38770869
   0.17964696  0.53710688  0.88772954
   0.49993806  0.50000028  0.00001903
   0.00004694  0.00004702  0.49996305
   0.74999664  0.74998255  0.25000005
   0.25001037  0.24999643  0.75000246
   0.08899548  0.41100374  0.25000160
   0.58901084  0.91100395  0.74999733
   0.41101633  0.08898906  0.25000063
   0.91101134  0.58900041  0.75000019
OPT                                     
           1
     5.001864   -0.000004    0.001377
    -2.494981    4.335136    0.001378
     0.813658    1.407057    9.590245
   Mn   O    Li
     4    12     8
Direct configuration=    20
   0.83284654  0.16718054 -0.00002191
   0.16714744  0.83283265 -0.00002203
   0.33283029  0.66716565  0.50001749
   0.66716483  0.33282057  0.50001782
   0.39532930  0.39533406  0.38604667
   0.89531845  0.89531800  0.88607150
   0.10467922  0.10468280  0.11395680
   0.60468217  0.60467487  0.61393370
   0.03711952  0.67967056  0.38770676
   0.53711060  0.17965733  0.88772324
   0.82031885  0.46287564  0.11230049
   0.32034644  0.96288485  0.61227470
   0.46288018  0.82032140  0.11229574
   0.96288069  0.32033526  0.61227639
   0.67967144  0.03711990  0.38770803
   0.17964713  0.53710586  0.88772913
   0.49993831  0.50000022  0.00001893
   0.00004676  0.00004678  0.49996319
   0.74999665  0.74998255  0.25000005
   0.25001031  0.24999638  0.75000249
   0.08899486  0.41100428  0.25000160
   0.58901024  0.91100452  0.74999735
   0.41101689  0.08898848  0.25000063
   0.91101192  0.58899984  0.75000022
OPT                                     
           1
     5.001068    0.000347    0.001199
    -2.494280    4.334662    0.001244
     0.813285    1.406524    9.593229
   Mn   O    Li
     4    12     8
Direct configuration=    21
   0.83286018  0.16711377  0.00001863
   0.16711283  0.83287356  0.00001867
   0.33288684  0.66712722  0.49998528
   0.66713272  0.33288568  0.49998479
   0.39530281  0.39529925  0.38603286
   0.89528729  0.89528894  0.88601757
   0.10470178  0.10470226  0.11396271
   0.60471029  0.60470802  0.61397811
   0.03709171  0.67970804  0.38778645
   0.53709023  0.17972178  0.88776936
   0.82025572  0.46290409  0.11225371
   0.32027777  0.96290760  0.61222754
   0.46290949  0.82029278  0.11220866
   0.96290989  0.32027468  0.61222677
   0.67971040  0.03708964  0.38778568
   0.17972331  0.53709269  0.88776852
   0.49994847  0.49999643  0.00002001
   0.00004132  0.00003864  0.49996326
   0.74999870  0.74998430  0.24999792
   0.25001146  0.24999625  0.75000061
   0.08897164  0.41102956  0.24999964
   0.58898743  0.91102859  0.74999588
   0.41104187  0.08896394  0.24999808
   0.91103489  0.58897529  0.74999829
OPT                                     
           1
     5.001015    0.000370    0.001187
    -2.494233    4.334631    0.001235
     0.813260    1.406488    9.593429
   Mn   O    Li
     4    12     8
Direct configuration=    22
   0.83286109  0.16710930  0.00002134
   0.16711052  0.83287630  0.00002139
   0.33289062  0.66712465  0.49998313
   0.66713057  0.33289004  0.49998258
   0.39530103  0.39529692  0.38603194
   0.89528520  0.89528700  0.88601396
   0.10470329  0.10470356  0.11396311
   0.60471217  0.60471024  0.61398108
   0.03708985  0.67971055  0.38779179
   0.53708886  0.17972609  0.88777245
   0.82025149  0.46290600  0.11225058
   0.32027317  0.96290913  0.61222438
   0.46291146  0.82029086  0.11220284
   0.96291184  0.32027063  0.61222345
   0.67971301  0.03708762  0.38779088
   0.17972841  0.53709181  0.88777115
   0.49994915  0.49999617  0.00002008
   0.00004095  0.00003810  0.49996326
   0.74999883  0.74998441  0.24999778
   0.25001153  0.24999624  0.75000048
   0.08897008  0.41103126  0.24999950
   0.58898590  0.91103020  0.74999578
   0.41104354  0.08896230  0.24999790
   0.91103642  0.58897364  0.74999817
OPT                                     
           1
     5.001137    0.000581    0.001141
    -2.494112    4.334827    0.001123
     0.813251    1.406319    9.594388
   Mn   O    Li
     4    12     8
Direct configuration=    23
   0.83289156  0.16711560 -0.00000688
   0.16709206  0.83289290 -0.00000765
   0.33289613  0.66709913  0.50001334
   0.66710181  0.33289415  0.50001249
   0.39526861  0.39526877  0.38603203
   0.89527002  0.89527474  0.88604535
   0.10472743  0.10473097  0.11396677
   0.60472852  0.60472748  0.61395627
   0.03708382  0.67973381  0.38780162
   0.53707342  0.17971886  0.88781631
   0.82026531  0.46291542  0.11220228
   0.32028027  0.96292308  0.61218542
   0.46291545  0.82026615  0.11219833
   0.96292554  0.32027951  0.61218555
   0.67973264  0.03707996  0.38780183
   0.17971136  0.53707705  0.88781877
   0.49996007  0.49999618  0.00001421
   0.00003287  0.00002968  0.49997212
   0.74999928  0.74998421  0.24999815
   0.25000991  0.24999589  0.75000017
   0.08894310  0.41105582  0.25000080
   0.58895913  0.91105624  0.74999568
   0.41106881  0.08893931  0.24999845
   0.91106189  0.58894812  0.74999759
